ITEM: TIMESTEP
1200000
ITEM: NUMBER OF ATOMS
5780
ITEM: BOX BOUNDS pp pp pp
8.6069281000157727e-01 7.1439307190013977e+01
8.6069281000157727e-01 7.1439307190013977e+01
2.2037983464595592e-01 7.2079620165369590e+01
ITEM: ATOMS id type x y z c_csym c_2[1] c_2[2] c_2[3] c_2[4] c_2[5] c_2[6] 
3 1 23.3909 21.8125 1.92443 16.3301 313382 589196 397729 42083.1 -303176 160749 
69 1 25.2362 21.7705 3.77622 16.7848 601561 -29461.5 636504 -60012.7 290380 189807 
5 1 25.3556 21.666 0.250157 11.6666 979243 225257 761621 -6587.5 -61366.7 -219448 
7 1 27.1401 21.6637 2.12888 15.923 579145 13493.9 638014 239051 242529 -216962 
73 1 29.0758 21.5854 3.79378 15.6335 805298 -157031 689107 -491448 354436 -238472 
9 1 28.8791 21.6856 0.345929 10.3153 211848 128325 683575 598193 -288661 -191916 
11 1 30.6634 21.6396 2.01519 11.5147 393621 360829 154069 112595 439735 -275718 
13 1 32.4349 21.7164 0.243159 16.3779 570200 321256 740766 31619.5 -159334 -131051 
77 1 32.5962 21.5064 3.8073 12.0432 1.38644e+06 710656 1.36748e+06 -391.847 65494.2 -198026 
15 1 34.3294 21.592 1.98046 17.0422 1.145e+06 616356 1.18011e+06 -113839 81801.2 66426.8 
65 1 21.76 22.2473 3.72365 24.7289 -460408 -275971 -108673 -549178 11808.6 59649.2 
4 1 21.7074 23.7985 1.89405 15.1623 423842 -142303 128857 -304779 -29094.6 536639 
19 1 23.5573 25.4524 1.97305 0.191632 -422535 116359 -366353 -292000 160350 -97319.7 
8 1 25.4437 23.4568 1.99708 0.636198 -1873.78 -298846 -237775 3659.94 -94901.1 259654 
66 1 23.5934 23.6742 3.71419 0.557033 -1.21068e+06 -1.36677e+06 306596 -404436 -34705.4 554724 
21 1 25.3497 25.4096 0.234801 0.204022 216223 242389 -140379 -518805 278396 -324730 
23 1 27.0757 25.365 2.11016 0.390187 -348434 272536 -77325.1 -154881 240109 -224376 
12 1 28.9587 23.5111 2.10718 0.20504 185859 -367978 -150585 -39139.6 -125314 -248294 
89 1 28.9169 25.2992 3.80433 0.185552 -392004 34365.4 -784302 -88644 508517 480.528 
25 1 28.8611 25.3421 0.328753 0.440737 107285 -248369 22837 -152660 216850 -377060 
6 1 27.2266 23.4264 0.238482 0.57797 -327800 -288144 -45084.6 88554.1 -11719.6 -299817 
27 1 30.6566 25.3978 2.1431 0.791261 -743750 -303707 -347135 -124688 -102962 -123140 
16 1 32.4985 23.5106 2.02005 0.305982 835598 243275 72756 -159013 -117243 -487290 
10 1 30.7344 23.5869 0.228382 0.23797 139097 52646.5 -3462.22 165635 -117746 -60242.6 
93 1 32.5166 25.1958 3.76652 0.286083 262950 -105989 -75342.6 6144.95 -552055 -123877 
31 1 34.4452 25.2405 1.98177 0.308458 -287810 -142211 58213.3 -20517 27624.5 191356 
2724 1 36.1175 23.4128 2.01201 0.123833 9981.51 -844327 -651609 187435 -26406.5 276002 
20 1 21.7387 27.2042 1.91739 15.828 211506 646907 412453 21827.2 35778.6 -467870 
33 1 21.5784 29.0772 0.247229 9.87125 620651 901818 963411 -254504 -78738.1 138203 
24 1 25.3529 27.2536 2.00265 0.113132 -170824 -689972 38310.5 -95236.1 83536.2 -384406 
35 1 23.5602 28.9699 1.96903 0.410258 -263504 63184.1 -234097 -16533.2 -256379 146931 
101 1 25.217 28.9607 3.74112 0.257741 -145714 -198559 -773940 -252199 -318362 -438309 
82 1 23.4932 27.1672 3.76929 0.200297 -1.11847e+06 -690045 -165491 72244.8 236101 -241335 
39 1 27.0606 29.0296 1.98638 0.181281 -608532 -583312 -507483 -289998 -130739 -1108.17 
28 1 28.9144 27.1293 1.97315 0.166737 -426687 -505118 -473191 134767 131952 -363801 
105 1 28.9112 28.9592 3.7229 0.19297 100971 -84235.6 429227 -247253 52054.1 111531 
26 1 30.7202 27.0714 0.251639 0.246232 129442 -143954 -419390 -281143 -77513.4 -636313 
43 1 30.7894 28.8704 1.94771 0.263389 -22523.7 -125530 -445117 127299 129864 -235783 
109 1 32.585 28.916 3.73498 0.127677 -397311 -234867 -464398 -43001.8 304603 -411520 
32 1 32.4949 27.0652 2.04379 0.28907 -199520 -151805 8533.54 -131085 103239 -68061 
47 1 34.2838 28.9444 2.00363 0.197762 -475570 33801.5 -801933 -7779.98 570435 -399648 
2742 1 36.1129 27.0603 2.02955 0.131698 -359850 -258043 -589980 -282494 -122294 238204 
30 1 34.383 27.0815 0.305646 0.243296 18097.4 -100685 -79835.2 -425836 -198934 -163338 
2757 1 36.091 28.9013 0.392576 0.478689 -356506 -381473 -205648 -78078.3 326917 431269 
2829 1 36.128 28.9044 3.76763 0.187307 -72318 -148057 -13391.4 211732 193439 211924 
36 1 21.5162 30.6647 2.12658 10.5787 721013 1.26328e+06 940385 -11544.5 -213815 -371615 
40 1 25.3249 30.8273 2.00246 0.13717 157299 -186227 -75069 185054 -150187 -385200 
51 1 23.3932 32.5689 1.99485 0.115795 545770 269077 23573.3 -93928.4 -395704 -403716 
34 1 23.3913 30.7919 0.249743 0.331324 84444.7 83585.4 446934 320872 -337978 -37235.6 
98 1 23.3691 30.817 3.8078 0.450158 -178524 316090 -262470 -148510 -188285 -399309 
117 1 25.1891 32.5778 3.73009 0.138111 1054.08 -429595 -161476 -17059.1 41676.5 -128362 
44 1 28.8972 30.7819 1.98933 0.101592 71151.5 140279 -605997 -219960 -462964 -120038 
121 1 28.926 32.4809 3.79323 0.324479 13954.6 394588 -71647.1 -277442 -518482 -380351 
38 1 27.2081 30.8444 0.284054 0.488428 -487573 -41388.7 -345631 -224350 -84973.4 569131 
102 1 27.0782 30.7959 3.77536 0.0737521 -256587 296630 26208.2 -165311 33127.6 -200311 
48 1 32.557 30.8428 1.84041 0.659708 -794746 -579535 -428647 197250 -206299 256684 
59 1 30.8368 32.5789 2.01438 0.320188 190078 128840 151703 190050 140889 -160777 
125 1 32.616 32.6036 3.80992 0.39156 -758774 -9668.47 -276681 -149251 -3638.72 -65963.3 
106 1 30.7954 30.6769 3.70259 0.281154 307033 210157 306279 160901 -373675 -146051 
110 1 34.3259 30.7522 3.71659 0.187064 -290148 -218329 -216276 -54904.9 395059 -467239 
52 1 21.4335 34.3852 1.81405 15.7969 659226 1.23815e+06 1.15962e+06 -125696 234591 -539743 
1353 1 21.46 35.9343 3.67948 15.3985 595514 1.23129e+06 843550 374587 -25757.4 -165793 
1357 1 25.1572 36.1487 3.72526 0.101466 69750.1 -122517 115076 349509 515752 185427 
56 1 25.1724 34.4119 1.89891 0.175681 201598 -279432 -199164 102096 -2347.46 -539385 
114 1 23.3885 34.3254 3.68913 0.225699 2903.85 18915.7 181720 315069 67054.6 -684510 
55 1 27.1034 32.7573 2.0516 0.675017 195013 5722.04 -177394 -15519.3 -64830.3 -501858 
60 1 28.9087 34.5266 1.99361 0.389631 203550 246364 163966 -108814 70194.9 -230798 
118 1 26.9928 34.3935 3.75415 0.221767 399736 -414432 -200338 -249405 212149 -525781 
64 1 32.5566 34.477 1.91835 0.246898 -524494 -296382 -499760 305803 187019 -368140 
122 1 30.7337 34.361 3.77889 0.108419 191698 139695 15237.9 -167766 48641.8 -146429 
1365 1 32.5502 36.1078 3.74824 0.240001 -156738 -515335 -261996 -155193 -213709 -461443 
63 1 34.2455 32.6645 1.97579 0.538112 -531745 -252017 -695441 -65604 387100 -107450 
4242 1 36.0605 36.126 3.76577 0.558141 423662 -33500.9 -170005 261414 -52593 -234809 
2775 1 36.1158 32.6546 0.392166 0.697699 -372983 -117076 -260850 -161876 22480.4 -437148 
67 1 23.4468 22.0077 5.51793 14.3344 28685.5 -17577.7 781518 -146289 38931.7 93884.3 
133 1 25.3676 21.5189 7.34893 12.3385 942016 914167 991909 -273754 650822 13039.8 
71 1 27.0354 21.6254 5.58506 16.5897 1.059e+06 229696 751945 71496.9 107246 -151697 
137 1 28.9476 21.5499 7.33951 16.6429 461355 328214 823112 10281.5 51891.4 -30528.6 
75 1 30.8386 21.4908 5.74314 10.4897 971763 672686 1.27898e+06 -63968.6 54589.5 -130176 
141 1 32.7286 21.651 7.3683 14.8767 785452 165414 291393 -286474 -170248 -89237.5 
79 1 34.4062 21.6555 5.60719 17.4773 -33251.1 -52283.3 -67461.3 -45254.9 291158 211492 
2793 1 36.1119 21.7428 3.83789 15.5215 124989 -324922 155800 92191.9 398918 -2698.58 
81 1 21.8447 25.3234 3.81533 13.6606 -307600 443671 228495 121451 189294 -490512 
68 1 21.6256 23.6426 5.67371 17.646 744026 361636 925746 289580 78077.6 -387983 
85 1 25.3567 25.4103 3.84166 0.229628 -66699.5 124929 -63602.7 -320246 296589 -190605 
83 1 23.5702 25.3854 5.73148 0.382435 -453333 -17956 390371 500463 -242390 -174982 
72 1 25.3439 23.5365 5.6176 0.174786 -187716 -76114.4 254006 -175358 39394.9 -224857 
70 1 27.1179 23.4476 3.8337 0.274578 29289.8 -177938 -341130 -378360 -113391 -196143 
87 1 27.2411 25.2982 5.59025 0.325371 -98089.2 523283 -300960 -151671 -143188 -212554 
76 1 29.0263 23.3757 5.47909 0.844867 90614.5 129801 -199834 -89384.5 58741.4 -76626.2 
153 1 28.8464 25.2768 7.38547 0.245636 -582104 640615 -464031 25973.6 141130 -19508.1 
134 1 27.1691 23.326 7.35873 0.367002 411426 -29576.8 279085 -1031 34612.8 -172027 
74 1 30.7693 23.3626 3.83626 0.296103 -661351 223275 -149081 -567187 240945 -177521 
91 1 30.6436 25.3153 5.69534 0.635386 453947 546042 508784 -53439.7 -41393.7 68241.7 
80 1 32.5779 23.3796 5.53644 0.317542 197757 136248 167104 -97581.5 -45068.3 322460 
157 1 32.5523 25.3233 7.37811 0.268088 432111 315341 -122459 125640 -20675.1 136477 
78 1 34.3364 23.4275 3.84557 0.20848 -413403 -540434 -246830 401654 300756 7347 
95 1 34.3409 25.2305 5.54463 0.136677 179527 -103365 -151882 213798 -130837 128358 
142 1 34.3683 23.5271 7.39782 0.16576 -371536 -435837 -37971.8 -57504.5 117843 113608 
2883 1 36.1359 25.3431 7.37099 0.226805 248445 229152 337904 -117088 -98883 222673 
97 1 21.6957 28.7244 3.8188 14.8635 178752 474126 754639 612044 -17926.2 -191667 
84 1 21.8338 27.0186 5.63536 15.074 -494282 71913 164216 323643 -134272 -339184 
161 1 21.755 28.8545 7.29835 16.3217 -373330 108934 151503 192095 328120 34842.1 
88 1 25.3572 27.1252 5.58947 0.0996943 -501986 -666664 -328254 -592046 -120831 -431571 
99 1 23.5243 28.876 5.66152 0.375018 -586853 -48186.5 -407156 -201273 333357 -53918.5 
86 1 27.1762 27.2042 3.81532 0.233777 -178282 -563071 -548430 -338140 131879 -663010 
103 1 27.0276 28.8663 5.52136 0.345376 -289800 -542397 -358928 -350523 -188156 -430370 
92 1 28.9633 27.1997 5.61599 0.427872 -365044 -464075 -452306 37027.6 -112754 -507247 
169 1 28.8235 28.8901 7.27297 0.413766 47863.6 -880240 -626611 50064.3 -193907 -470482 
150 1 27.0492 27.1121 7.38093 0.222412 -672518 -691580 -355838 -187747 -205449 -106932 
90 1 30.7393 27.1581 3.83591 0.156685 59979.7 -201995 -586329 -133515 200842 -612193 
107 1 30.8482 28.8543 5.60839 0.490824 33114.5 -417234 36070.9 -438487 119204 -440146 
96 1 32.6121 27.0959 5.55171 0.245229 -177559 131660 228093 250223 -207948 126828 
94 1 34.3924 27.0509 3.82123 0.146429 99997.1 401074 -241334 -121626 316443 78296.7 
111 1 34.3857 28.9062 5.62984 0.108542 -322672 -391716 -140311 81944.2 175721 123373 
158 1 34.3585 27.1658 7.36145 0.263326 -278798 -3732.06 69136.9 249652 149551 170295 
113 1 21.4123 32.5258 3.82041 17.2173 975948 1.24885e+06 1.38217e+06 59968.1 -64506.4 -448208 
100 1 21.6012 30.6335 5.52581 11.1849 269767 1.04075e+06 1.17974e+06 -252448 277270 285044 
177 1 21.6126 32.6104 7.38173 15.9124 -202261 538509 422383 -284680 -91016.7 485256 
104 1 25.2287 30.7813 5.45966 0.516068 -82216.9 162014 83365.3 149240 -67615.5 -148692 
115 1 23.3565 32.4088 5.60312 0.704089 -192068 -410668 -137297 234416 228021 -371476 
181 1 25.2889 32.6087 7.31154 0.236543 213559 399013 83833.7 -74191.2 295153 -113210 
162 1 23.4523 30.7492 7.38565 0.179014 555431 -338348 -125863 -99341 144713 342995 
108 1 28.8485 30.7074 5.64561 0.473299 115378 -53450.9 -193723 -120707 -58115.9 223523 
166 1 27.0474 30.7566 7.29451 0.240969 -319066 -214320 -555434 41315.4 340071 126981 
119 1 27.1111 32.5749 5.64995 0.424543 3851.71 -103537 -259854 -125432 145900 -40449.2 
185 1 28.9247 32.5625 7.31594 0.160122 -784427 -987961 -1.12111e+06 -218126 -115589 336942 
123 1 30.6913 32.5063 5.4898 0.288543 -308172 -199093 -124830 5596.85 -124381 70830.3 
112 1 32.5408 30.6602 5.49963 0.275714 -147102 67692.4 18525.4 -228269 44006 -19267 
189 1 32.5369 32.6104 7.36624 0.388773 100921 -101952 -556985 150142 -525399 346642 
170 1 30.7219 30.6981 7.29723 0.181687 1707.71 269842 -254706 79521 266047 -131130 
127 1 34.3574 32.4766 5.55124 0.392519 -599932 25083.1 -759855 273786 224147 108607 
2919 1 36.1223 32.6002 7.40421 0.18704 -22747.6 -195986 -326544 123427 -92366.6 29989.2 
2832 1 36.112 30.742 5.6195 0.118667 -332726 -635157 181438 -14000.7 -74816.9 239701 
2847 1 36.0886 32.5808 3.92503 0.434504 -509830 -33574.3 -189078 333957 376750 58563.4 
116 1 21.5983 34.2527 5.57725 16.2383 -30891.8 547019 -1001.62 -41618.5 -502630 208318 
1355 1 23.339 36.1244 5.40896 0.494141 -288931 -159813 294761 486024 293309 108138 
1429 1 25.2109 36.0714 7.32261 0.266723 313442 -118642 -253895 -23268.7 122490 141101 
120 1 25.1208 34.3782 5.49408 0.324188 412782 89579.7 -304220 231247 107250 -63625 
178 1 23.2969 34.3967 7.24317 0.539085 -615318 164511 -145843 -473108 -162257 115279 
124 1 28.9706 34.3034 5.56359 0.319991 -222134 -463696 -528390 -2529.14 -29578.5 130628 
182 1 27.1226 34.3725 7.3394 0.179104 -32004.7 -651180 -444576 321.232 -173139 -290002 
128 1 32.4501 34.3075 5.67741 0.640838 -185398 -389336 -658966 -55283.3 -223060 78621 
186 1 30.62 34.3189 7.34364 0.273327 -859716 -352373 -868744 -70513.6 -36159.6 -230122 
126 1 34.3266 34.3076 3.82641 0.286824 -271498 -674464 471073 -211642 -94569.9 -241483 
190 1 34.3334 34.4405 7.2481 0.799957 -430288 -313696 -186377 132311 86197.9 354808 
129 1 21.9004 21.9432 7.63884 24.5171 35831.3 -190112 397009 -271491 -280044 -886248 
131 1 23.7356 21.5715 9.16836 17.0115 383409 556749 411686 58594.2 -603957 22738.8 
197 1 25.3962 21.542 10.9151 11.1086 628498 628113 447742 23804.1 -368382 108729 
135 1 27.1837 21.5186 9.1666 11.0591 872976 223345 664225 -23757.8 31689.4 99344.1 
139 1 30.6334 21.6295 9.15473 15.745 922493 -19168 1.13238e+06 506651 -536589 235323 
205 1 32.4337 21.7947 10.9592 15.9983 368543 395519 704525 -26658.7 232093 172525 
143 1 34.3383 21.7003 9.2346 16.3538 560757 187638 413102 -47308.9 -168282 -260508 
2865 1 36.0673 21.692 7.4095 15.2149 259194 -10844.9 310366 49283.3 -68267.4 7309.83 
145 1 21.7421 25.2374 7.65449 13.6073 -7083.22 842071 627156 168019 -565628 -35372.9 
132 1 21.8957 23.4673 9.33955 15.0347 -307351 -1.35745e+06 -1.37902e+06 -169346 -391760 -378448 
209 1 21.797 25.3673 10.8698 15.1422 -476824 356428 6266.78 -312170 123273 67390.3 
149 1 25.4195 25.3054 7.45591 0.118241 51587.2 -59121.8 216182 -653305 -143283 45458.3 
130 1 23.639 23.5599 7.52723 0.513096 -442273 -551738 210699 -818322 359500 -263765 
147 1 23.5609 25.3429 9.23645 0.204168 -675973 -9540.32 -519986 -480932 102996 -454500 
136 1 25.5456 23.4883 9.21786 0.573536 119888 415943 72434.9 -149070 -217639 279707 
194 1 23.6349 23.4158 10.9665 0.480164 -697552 -523454 -425971 -387122 -727762 178018 
151 1 27.2747 25.28 9.23183 0.452552 -802828 -380851 -184316 -733158 -32948.9 227302 
140 1 28.9612 23.3482 9.22671 0.296715 -824264 -215592 -469398 395225 151950 -128112 
217 1 28.967 25.2892 10.98 0.268206 -1.00589e+06 -362637 -1.11038e+06 82911.3 -499904 -182429 
198 1 27.2298 23.3992 10.9536 0.256161 -345376 -79656.8 -470679 263683 -149083 317020 
138 1 30.6332 23.4284 7.41713 0.508248 298177 134299 -107991 -111650 -283923 172418 
155 1 30.6883 25.3002 9.16324 0.203772 -185509 -76267 -254849 -213992 19292.2 136073 
202 1 30.5918 23.4983 10.9808 0.376693 -136694 -719661 -387880 603070 -250477 365279 
144 1 32.4805 23.4717 9.04948 0.596463 165518 -92081 285193 -28167.1 -102762 261169 
2868 1 36.1266 23.5065 9.19533 0.147341 -200420 -228823 -412778 33748 119547 -2419.3 
159 1 34.2511 25.2689 9.29216 0.428124 40132.2 193934 330518 434214 -281930 -29064.3 
206 1 34.3252 23.4347 10.9771 0.311069 482978 -308948 -34531.6 -480403 144241 271936 
148 1 21.6425 27.2082 9.15839 10.6576 578852 644021 534856 -53749.2 233.357 28011.7 
225 1 21.6787 29.0337 10.891 16.5574 96790.5 603745 659127 -256894 -113281 -227867 
165 1 25.3002 28.8745 7.42425 0.239183 -789210 46988.9 -357454 -91026.3 -201455 -250941 
146 1 23.5259 27.1574 7.42994 0.251723 -378532 -713915 -373216 -59207.4 -151664 -75309.2 
152 1 25.4086 27.1185 9.29511 0.529814 -595853 -275834 -821876 -553044 -416198 240279 
163 1 23.5312 29.0268 9.1247 0.217624 108054 270628 -308823 -121959 179977 4108.98 
229 1 25.2968 29.0722 10.9671 0.317753 -189244 40832 -330315 15719.4 530184 9702.3 
210 1 23.4906 27.1721 10.9325 0.149152 -9285.41 -307417 -205078 -254819 85067.5 -297005 
167 1 27.0268 28.9328 9.13645 0.238394 -454461 -562279 -732930 63986.5 -118106 158195 
156 1 28.7897 27.1102 9.23098 0.353786 -578284 -406860 -25510.2 -477851 -52752.6 121332 
214 1 27.0186 27.2226 10.9751 0.568995 -584130 -69942.7 -925922 -225187 -493276 168139 
233 1 28.9053 29.0563 10.9775 0.405743 -577867 -104581 -301460 113015 -158267 -342015 
154 1 30.6473 27.1366 7.47183 0.365889 441913 -124776 -197282 171966 -350961 -79250.2 
171 1 30.6076 28.9204 9.15442 0.343577 356554 -302048 -166686 114078 86536.3 -161212 
160 1 32.5173 26.9888 9.20689 0.537643 -257039 -307524 -167661 -125776 -79904.3 137739 
218 1 30.6496 27.1774 10.9294 0.253492 -422486 -355915 -168502 7441.37 153850 1927.34 
173 1 32.6266 28.9163 7.41979 0.389503 -241868 -146754 -55761.7 81436.1 -199908 -255644 
175 1 34.2626 28.8351 9.30203 0.65263 -133856 -398224 -432848 369128 -235352 77027.2 
164 1 21.5194 30.7053 9.03296 10.958 596974 1.04499e+06 972273 86125.7 82180.7 301185 
241 1 21.5962 32.4872 10.9378 17.3561 141037 650446 1.07114e+06 386985 -52936.5 472816 
168 1 25.4074 30.8003 9.19812 0.670452 -89016.9 -283107 -121767 -92262.2 -28451.2 7078.35 
179 1 23.4013 32.5749 9.05952 0.351007 -1720.3 237863 202789 -22895.7 -165106 -67281.2 
245 1 25.2735 32.55 10.9545 0.1239 578352 61331.6 278644 -135480 -136663 61868.2 
226 1 23.3575 30.8352 10.8938 0.399028 -323038 -509258 277963 24533.5 281650 10842.6 
172 1 28.9491 30.7365 8.97648 0.702467 -419384 -613633 199935 125642 167796 170584 
183 1 27.1908 32.5159 9.08589 0.422199 -170510 -140708 64743.2 -384531 71250.7 153658 
230 1 27.1441 30.8075 10.9604 0.146663 -619417 96989.8 -58322.9 11303 -845784 138661 
249 1 28.9089 32.5957 10.9468 0.214752 135580 492146 87963.2 -302138 -73105.7 251098 
187 1 30.6241 32.487 9.16659 0.403796 36382.1 83657.6 60685.3 -431170 -22375.9 20722.4 
176 1 32.5517 30.6769 9.16004 0.326523 -534132 -121843 -780368 -49195.7 -43348 -267742 
234 1 30.7923 30.6941 10.946 0.421048 -203551 -1.08986e+06 -453037 -172716 67492.9 240902 
253 1 32.5196 32.5205 10.9426 0.174561 -981959 -404911 -594503 -134208 446048 -1896.61 
174 1 34.3066 30.7221 7.4127 0.13243 -184502 -24217.7 -57162.9 -332269 254910 -252917 
191 1 34.181 32.5916 9.10078 0.604532 -463888 -219345 -710525 132398 -235389 -265078 
2904 1 36.1422 30.7992 9.13302 0.26857 323938 351106 -227622 -173921 2808.36 -198580 
238 1 34.2132 30.7637 10.8775 0.502904 -408065 -229252 -74351.3 217603 -483837 -134856 
2991 1 36.06 32.5209 10.9277 0.16141 246537 -107050 -87980.9 218188 46030.5 -34447.1 
180 1 21.658 34.3739 9.20825 15.3253 19835.6 780065 815476 -34494.6 -157862 -225989 
1501 1 25.3407 36.0962 10.9538 0.533187 294080 -373211 264244 235331 85084.1 185886 
184 1 25.2029 34.3204 9.14066 0.154793 848837 165759 244508 -351726 46662 -23121.8 
242 1 23.3695 34.3517 10.9809 0.151968 147064 1.12251e+06 369010 -130186 -412041 42631 
1431 1 27.0453 36.1131 9.08563 0.0756113 -543131 -401083 -173961 458059 -127019 -434801 
188 1 28.8401 34.4166 9.08243 0.263522 -469366 -314598 -400951 -26083 -218156 -273452 
1505 1 28.8048 36.1211 10.8755 0.259796 203060 18879.8 287029 199399 -157768 -459541 
250 1 30.7007 34.4467 10.8494 0.453975 70001.2 121161 -66667.3 -104169 188836 -181408 
192 1 32.4416 34.3408 9.12061 0.271635 -345014 -397606 -153573 322553 103844 -248213 
1439 1 34.3125 36.0609 9.22898 0.326576 -143666 14829.4 -411288 -51106.5 250578 -78267.6 
254 1 34.2827 34.2579 10.9441 0.207089 -388984 -822085 -466948 -164190 -148613 269062 
193 1 21.8383 21.8215 11.076 29.8381 326681 82819.1 1.26814e+06 -220292 -312083 333423 
257 1 21.8885 21.8577 14.418 25.8406 545017 628466 1.30843e+06 -70793.6 447352 -2663.28 
195 1 23.6357 21.7766 12.7654 15.0701 281097 228697 88630.7 -393404 12979.3 343682 
201 1 28.7944 21.5347 11.0569 9.21759 841238 60143.3 833209 403770 -309872 -132981 
199 1 26.9679 21.6236 12.8274 9.05634 949228 119435 939824 183256 -61000.3 -122467 
265 1 29.0768 21.5853 14.4169 13.7768 1.02948e+06 152420 506490 -163366 446267 697713 
203 1 30.7279 21.8018 12.7115 15.1663 -346731 -237628 -62353.6 551315 750991 425387 
269 1 32.5232 21.8512 14.5871 14.6423 683353 -7095.19 221660 -44926.2 -404358 -96297 
207 1 34.2328 21.7217 12.7446 11.175 1.21171e+06 361097 1.16035e+06 -84330.3 -107363 399414 
196 1 21.7305 23.7065 12.7053 14.7242 344442 387583 895327 -518279 52209.6 75288.9 
273 1 21.5947 25.3732 14.5702 16.5883 539999 382701 785202 -284227 -41952.7 -220029 
213 1 25.4052 25.3376 11.0524 0.246684 -419926 -257249 -476844 -439179 185401 393771 
211 1 23.5397 25.31 12.5934 0.805535 -853234 -63915.4 30717.1 -499390 -135187 199115 
200 1 25.3937 23.5253 12.7235 0.351898 -110403 -279173 171909 87286 -308681 107788 
258 1 23.5638 23.6419 14.5622 0.442989 -433444 -439577 336058 -927191 -38581.1 -367533 
277 1 25.2597 25.2928 14.5241 0.265039 -243789 -130911 -97398.1 -620975 -46951.8 -72392.8 
215 1 27.218 25.3906 12.7238 0.646947 -348252 276130 -307796 -528376 -518626 -8335.36 
204 1 28.9199 23.3248 12.8155 1.02487 -620315 -928523 -606150 427541 157140 298107 
262 1 27.1131 23.4584 14.552 0.366741 151703 -498252 -277460 -391709 -13308.7 -167355 
221 1 32.3704 25.3533 11.0159 0.398092 370134 233030 -259767 -29298.8 -14326.4 544849 
219 1 30.5263 25.3026 12.7823 0.703919 -119341 -63234.8 -410444 432705 -158328 44392.5 
208 1 32.5523 23.6565 12.852 0.617142 659254 -233625 139475 -164499 166075 89506.3 
2955 1 36.0859 25.2711 11.0284 0.197373 107394 442754 -15466.7 -186854 -368743 -139632 
223 1 34.3161 25.4081 12.7797 0.322494 -122119 -114297 114184 -280092 258770 130948 
2940 1 36.0695 23.4585 12.8341 0.38251 424418 33004.5 566019 -181687 -320833 -189290 
212 1 21.6867 27.1779 12.7633 16.2727 424602 1.46321e+06 1.10274e+06 -115714 -234141 13691.2 
216 1 25.2421 27.1576 12.8042 0.302137 126633 7703.44 92074.5 -130736 -214257 -207855 
227 1 23.5037 28.9853 12.6143 0.686831 -185896 372886 398181 17946.3 167486 -105474 
274 1 23.3387 27.1268 14.5858 0.58584 -356869 614852 232259 -346466 77428.6 154414 
231 1 27.1218 28.9552 12.8339 0.250004 660318 -138925 46698.6 -156050 89302.8 3858.62 
220 1 28.92 27.1135 12.7264 0.324556 -826060 -576113 -42620.8 -79204.7 -60189.2 -122803 
278 1 27.052 27.1804 14.5306 0.375037 310145 275745 106139 312085 -68152.5 132783 
237 1 32.4644 28.9334 11.0209 0.144938 -717251 -484697 -141007 229857 458602 310340 
235 1 30.6253 29.009 12.6799 0.352277 -633957 -255012 -956796 -99395.8 -21051.8 296749 
224 1 32.4608 27.1642 12.79 0.123351 369768 -80857.1 -23154 99268.1 163926 -397045 
282 1 30.5566 27.1591 14.5524 0.603201 54741.3 -24355.4 113654 425254 -95336.4 -26530 
301 1 32.4227 28.9375 14.4752 0.439367 625932 -134056 -41035.6 129594 154404 20041.1 
2973 1 36.0883 28.9718 11.057 0.272551 110793 389267 -332678 -208253 -39215.1 -279041 
222 1 34.293 27.1432 11.0482 0.0983205 88834.2 -584617 -711245 38495.9 57042.7 394430 
3045 1 36.1434 28.9788 14.5162 0.163231 99729.5 80455.9 -95895 -107166 -81765.4 130807 
239 1 34.3093 28.8998 12.8006 0.138538 -218779 237550 -72004.4 -82867.1 120724 -155305 
286 1 34.3511 27.1229 14.5911 0.0853022 -57726.5 -81930.6 -661979 -197549 392770 142660 
228 1 21.6143 30.759 12.6796 17.7988 390328 464898 433812 -175238 335675 554228 
289 1 21.6186 29.1158 14.467 15.2347 494643 805907 683877 -179822 -127011 1110.77 
232 1 25.2742 30.8311 12.7823 0.219288 378523 307051 402803 -85485.5 -13243.1 -39110.8 
243 1 23.3916 32.5222 12.7875 0.158731 -68412.2 112720 314857 -76150.9 -258290 -92688.3 
236 1 28.8167 30.8287 12.7016 0.490165 163299 -100842 -216225 -65238.4 -399222 -285409 
313 1 28.9282 32.538 14.5527 0.229372 395560 -223970 34818.2 178901 -1670.56 -157128 
240 1 32.492 30.7628 12.806 0.198467 -323657 -402028 -420519 -41125 -122370 286245 
251 1 30.777 32.5584 12.6464 0.547735 -381518 119365 175318 177116 67977.3 -54504.7 
298 1 30.7243 30.8196 14.5843 0.197916 -338231 161450 323707 95256.5 90223.8 -48503.9 
255 1 34.2226 32.5802 12.7592 0.159028 -253805 -178591 -297917 -313638 164063 448744 
244 1 21.568 34.3754 12.7921 18.2443 441768 1.52108e+06 1.23618e+06 -6516.04 -167389 -27097.5 
248 1 25.1326 34.3862 12.8331 0.258119 461200 205292 -9441.56 45327.2 -15600.5 360108 
306 1 23.2634 34.3569 14.588 0.435325 -756905 -129891 -242092 203257 20541.8 91704.1 
246 1 27.0114 34.3651 11.0084 0.261791 56957.3 -309250 661706 159541 3641.16 310376 
247 1 27.0083 32.668 12.8259 0.376821 258695 -98654.8 236791 -32633 -215167 -20993.9 
252 1 28.9696 34.3228 12.8423 0.458693 331984 33602.1 359705 -163420 -67448.8 -41479.7 
1581 1 32.4697 36.1457 14.5154 0.379006 -278420 -101967 -274620 246668 69598 133309 
317 1 32.5135 32.6949 14.5329 0.35106 -35437.2 -293437 -186732 268437 340431 277788 
1507 1 30.7585 36.1101 12.6906 0.302227 -143989 -197246 -243147 90812.7 9859.55 129095 
256 1 32.4794 34.3819 12.7675 0.152344 -94832.4 -887878 -144682 302531 117746 185733 
4404 1 36.085 36.0562 11.0474 0.485908 161762 -323302 -93132.3 247012 135171 156852 
2994 1 36.0165 34.2916 12.7758 0.490134 82207.2 -389102 -326973 229273 -132266 156092 
261 1 25.1965 21.609 14.6907 14.9756 755559 679783 628978 -1366.17 -244736 -255944 
259 1 23.488 21.7853 16.4886 15.5942 9505.58 96886 768047 -261421 36874 -355647 
325 1 25.2656 21.7593 18.1708 17.5561 986794 281302 532056 125473 -312634 217809 
263 1 27.1015 21.6865 16.2217 14.2958 1.06361e+06 427353 1.24726e+06 -60509.4 -492112 530343 
329 1 28.8078 21.5884 18.1288 16.8361 738009 787376 710402 8469.64 348526 115646 
267 1 30.6482 21.6681 16.4706 14.9602 608259 8188.53 1.21525e+06 359749 53004.6 -143533 
333 1 32.5741 21.6423 18.167 16.6426 849891 238357 334049 -110001 245914 -88329.3 
3081 1 36.149 21.7295 18.0261 13.5172 -12316.5 3452.42 321349 -12439.8 449603 396585 
3009 1 35.918 21.589 14.6961 15.6839 1.40239e+06 744058 1.47813e+06 278992 277364 -46680.3 
271 1 34.1461 21.7914 16.37 14.1814 -164143 -360537 -736458 528176 386226 184914 
260 1 21.675 23.5582 16.2661 15.3093 450125 -140193 -13515.7 33822 48613.8 -102341 
337 1 21.6786 25.2254 17.956 12.1847 95433.3 610237 590157 411953 283211 -534375 
275 1 23.5526 25.3525 16.3132 0.370073 -230431 -733290 -884466 -270190 467063 -212534 
264 1 25.2689 23.4614 16.4054 0.395392 -686295 -902993 -252862 -595033 81875.7 176947 
322 1 23.5025 23.6387 18.1083 0.470874 -1.47522e+06 -1.43088e+06 -460285 -470642 124511 -294590 
281 1 28.7684 25.2236 14.5931 0.667059 -583386 -107254 -147775 -182885 -37690 128903 
268 1 28.9909 23.3951 16.3224 0.845512 -198722 -267762 10988.5 243227 241401 303107 
279 1 26.9719 25.1726 16.3221 0.912802 -192157 -128272 -585613 -149099 174513 144639 
345 1 28.9322 25.2915 18.0689 0.418498 -372487 -335578 280199 -365184 323526 285000 
266 1 30.6879 23.5952 14.636 0.576635 -534404 -205353 -414690 96281.3 224220 -165487 
285 1 32.5737 25.3003 14.6688 0.47305 31476.5 -277889 -117626 -194889 184867 -563339 
283 1 30.6878 25.3662 16.3465 0.268781 -75077 -126509 -284519 228930 518886 -604454 
272 1 32.4144 23.4792 16.4583 0.579458 -153953 -628077 -70994.8 640089 -16072.9 -96264.2 
349 1 32.6084 25.3722 18.1564 0.222173 512381 417158 246249 223171 60307.8 -326233 
270 1 34.341 23.5545 14.7367 0.754445 -9398.64 -804707 218199 -26263 102908 187851 
287 1 34.4109 25.3929 16.3553 0.326721 126858 -158741 -349242 -148699 -177914 -238356 
334 1 34.3863 23.496 18.164 0.233345 259755 -224945 250620 82289.8 -51901.9 -196549 
276 1 21.5728 27.1638 16.2398 11.4369 -18830.2 978448 483053 -191827 220978 -472437 
353 1 21.7297 28.9088 18.0745 17.1921 -302774 268397 98895.9 474677 415282 249728 
293 1 25.2111 28.8935 14.6603 0.391531 171103 13652.3 539311 159353 227796 -113682 
280 1 25.3173 27.0662 16.3945 0.522355 -166505 200971 -22629.1 -252325 339800 379839 
291 1 23.3575 28.9896 16.3308 0.35226 -611309 -562006 -739130 27280.4 798413 715571 
338 1 23.4298 27.1943 17.9273 1.13598 -447315 -197688 -202079 509215 740885 15615.4 
297 1 29.0431 28.9797 14.6036 0.897918 -65408.4 -211630 69049.9 406851 -54963.5 -310031 
284 1 28.8296 27.0982 16.4083 0.256813 148467 197083 -39501.5 353928 177557 224491 
295 1 27.1122 28.9766 16.4262 0.241977 254823 -248794 50738.4 -209916 -329653 -100201 
299 1 30.7083 28.9288 16.4459 0.283404 -327720 -72240.1 -450715 255394 -493499 -18220.9 
288 1 32.5787 27.1627 16.2924 0.241348 168923 -312018 -4137.98 16289.8 548282 -392404 
365 1 32.5203 28.8829 18.0943 0.254317 -192898 103761 -180307 -34044.8 39777.4 -298909 
346 1 30.7401 27.0942 18.1128 0.0973097 63517.6 -347403 -58840.2 -138755 834.431 -70398.7 
303 1 34.3323 28.9584 16.3949 0.141669 351666 241711 257691 -136101 249992 -21889.3 
292 1 21.6128 30.6974 16.3618 16.2306 141313 643166 736918 357689 -27036.7 118764 
305 1 21.5397 32.604 14.638 16.7132 435281 1.32769e+06 1.26552e+06 -412146 -167042 243412 
290 1 23.5085 30.7652 14.6323 0.580376 43913.9 91579.7 158336 -312090 -34371.7 441076 
296 1 25.1935 30.7904 16.4244 0.309061 -256193 43591.7 -582778 -244632 248483 -188493 
373 1 25.3176 32.5759 18.1308 0.232343 290632 193158 55406.9 -488011 74699 -429703 
354 1 23.4755 30.9113 18.0992 0.571326 -740929 229940 -478240 -108598 938192 200905 
311 1 27.0777 32.4536 16.3023 0.474094 290960 3286.74 198210 -282909 257073 -127973 
294 1 27.0062 30.6973 14.5925 0.345946 852456 286246 -114765 -233848 -101890 -412082 
300 1 28.9274 30.6784 16.4088 0.199115 -183336 44289.2 -84085.4 162343 305402 -74521.7 
358 1 27.1951 30.7238 18.1733 0.557354 55816.9 -223062 -77228 -10038.1 52930.1 100456 
304 1 32.5171 30.8116 16.2843 0.391038 5197.34 581949 340738 95663.7 9038.69 76838.9 
366 1 34.3384 30.7756 18.1735 0.151197 273426 113736 87822.8 1218.87 -64551.3 -22640.6 
3048 1 36.117 30.8547 16.3286 0.264184 -179973 -340864 -395626 95281.8 75829.5 -27468.5 
302 1 34.3045 30.845 14.5978 0.149635 -88796 523200 12813.6 3415.93 71143.3 173315 
308 1 21.5774 34.5202 16.4131 16.7521 -133953 472222 516589 -276413 130184 91617.7 
309 1 25.1162 32.7074 14.6195 0.78826 -161220 -447073 -515644 -232496 52654.1 -194866 
312 1 25.2066 34.4024 16.303 0.258694 400183 -559029 -538584 -56910.7 122728 -277932 
307 1 23.3522 32.6471 16.3697 0.186211 -151258 -80105.1 -427309 41381 187788 505607 