ITEM: TIMESTEP
4000000
ITEM: NUMBER OF ATOMS
5780
ITEM: BOX BOUNDS pp pp pp
1.3508143046183576e+00 7.0949185695397190e+01
1.3508143046183576e+00 7.0949185695397190e+01
-7.9883311653580225e-01 7.3098833116551347e+01
ITEM: ATOMS id type x y z c_csym c_2[1] c_2[2] c_2[3] c_2[4] c_2[5] c_2[6] 
1 1 22.0821 21.9349 -0.57406 32.0457 981184 648850 1.40161e+06 153406 -76980 -313432 
3 1 23.8308 22.049 1.24277 14.1413 -7357.2 -265880 600199 -761785 -314572 -254289 
7 1 27.2399 21.8268 0.94541 17.074 1.14692e+06 175675 1.19868e+06 61444.3 -32435.3 209683 
73 1 29.0318 21.8769 2.86684 15.9605 641858 252348 803066 -215491 283443 -60767.3 
11 1 30.615 21.7737 0.922578 15.8069 1.63724e+06 567915 1.20188e+06 379296 -23351 123904 
77 1 32.5758 21.915 2.70859 14.2858 538048 -84361.6 1.15208e+06 283871 423006 -51187.6 
15 1 34.3466 21.7446 0.968169 18.9252 611630 538149 836233 181393 -83729.8 76447 
2793 1 36.0359 21.9093 2.80816 15.4283 242950 -257087 554177 207032 46495 167408 
4 1 21.9229 23.7626 1.03348 15.0561 440062 28675.4 559434 -250548 63226.9 -42367.5 
17 1 21.7908 25.6033 -0.666779 10.7415 692962 1.28473e+06 1.14308e+06 -267556 -137936 400805 
19 1 23.7146 25.4371 1.18096 0.328798 -434188 -117620 117753 -306145 27034.3 301057 
8 1 25.5401 23.6219 1.10135 0.246626 -847127 -514804 -85489.1 -528298 55271.3 -130996 
23 1 27.2871 25.4959 1.00761 0.2857 -570658 -324155 204739 505760 -66436 -49219.6 
12 1 28.9861 23.6432 0.967731 0.141427 -207481 -514035 289893 -114785 -156499 188608 
6 1 27.2317 23.6456 -0.786019 0.364183 -535477 -904008 331952 246762 39825.7 62237.1 
27 1 30.6969 25.3838 1.06493 0.745515 314314 114732 616070 -442552 -310035 -254409 
93 1 32.5447 25.3884 2.81807 0.193569 -613142 -235684 472730 100005 -17889.5 -159963 
74 1 30.8456 23.5319 2.84076 0.342938 58879.5 -560032 782580 77154.2 -307543 -14759.4 
16 1 32.7002 23.6132 0.770469 1.45943 402912 87366.6 429455 -118591 58529.7 271890 
31 1 34.35 25.3844 0.952879 0.100531 -192414 -264611 -183885 -420771 213718 279021 
78 1 34.3304 23.6457 2.83781 0.241129 -8402.77 -267363 763342 235063 -221108 78374 
2739 1 36.1126 25.3173 -0.79127 0.238026 -937378 -547088 151569 -497354 200820 356186 
2811 1 36.1279 25.4622 2.78216 0.423128 224020 398432 623917 -164673 -72776.1 10304 
20 1 21.9196 27.2104 1.34873 13.0372 -163501 72528.4 498454 -223349 -390868 -7490.28 
33 1 21.8627 28.798 -0.698737 14.3861 -126319 771436 130181 41768.3 -370540 -610426 
24 1 25.5556 27.1065 1.03278 0.611808 -62254 18451.7 354338 275421 -333355 42832.2 
35 1 23.5761 28.9661 0.990912 0.666572 -402053 -101972 -246846 -515078 -229478 166359 
18 1 23.7513 27.1443 -0.681999 0.537965 -129790 -217871 175074 21023.4 -336951 -353593 
37 1 25.4192 29.0629 -0.684138 0.727535 17506.7 270060 517664 4937.94 -172852 -159285 
101 1 25.409 28.9657 2.84074 0.25857 244455 -129738 786651 -680722 52615.2 227568 
28 1 29.0394 27.2659 0.915208 0.224605 356566 86226.8 613686 -97323.5 -84561.5 -391731 
39 1 27.2504 29.0875 0.987189 0.270758 -215025 182579 231527 -176618 -468704 -20368.3 
105 1 29.0554 28.9427 2.74857 0.397516 268287 176065 525011 -608836 -359544 -251072 
32 1 32.4848 27.1698 0.896623 0.33381 212711 308119 31989 3938.92 71682 -74937.5 
43 1 30.8063 29.0607 0.814349 0.459544 -466141 -360333 270410 -349927 -208275 38464.9 
90 1 30.8699 27.1379 2.80717 0.330899 -17085.7 -54356.9 243621 248407 78750 -282911 
109 1 32.5736 28.931 2.71449 0.443611 -351923 -535268 323917 136697 439752 -333.209 
47 1 34.2561 29.0622 0.956926 0.390445 -290090 292585 -157530 439066 144051 -188233 
94 1 34.2164 27.1693 2.85898 0.260868 -164203 -12231.7 847878 21411.6 222143 -93455.1 
2742 1 36.0338 27.2659 0.964991 0.27213 120079 253231 148612 -104191 -350750 76501.7 
36 1 21.7183 30.7331 1.03116 17.326 415887 1.46701e+06 1.29257e+06 -52703.8 71166.2 -487.534 
40 1 25.3685 30.8024 1.09941 0.23131 -38210.7 -268886 -1491.69 -251139 -550216 -328244 
51 1 23.4815 32.5616 1.06227 0.0959058 247835 249817 539985 225292 -368759 -364114 
34 1 23.5545 30.7054 -0.702764 0.286535 42079.8 -156506 290763 342113 -1592.33 220619 
44 1 28.9644 30.8084 0.930513 0.0727647 -14972.7 -5470.57 463479 -687065 -246958 -79088.6 
55 1 27.0184 32.592 0.976091 0.358359 206216 -207899 338144 -257383 -271682 322630 
121 1 28.8666 32.5142 2.87097 0.138904 499621 632795 710753 -142823 141645 -240265 
102 1 27.0777 30.7499 2.85494 0.287241 -13623.8 195279 288566 -417355 -105980 -370994 
59 1 30.6903 32.5315 1.02194 0.181393 -321599 -311445 501964 -130406 94177.3 172423 
48 1 32.4948 30.7457 0.992604 0.291201 -813537 -891653 21027 -238254 -153378 280477 
61 1 32.5447 32.5421 -0.78469 0.491683 -383757 -290554 53790.8 -239792 54536.5 -94750.3 
106 1 30.789 30.7608 2.84083 0.168278 142433 325286 218791 -98642.5 -3480.35 202093 
125 1 32.6273 32.5221 2.86787 0.327457 -176893 -775586 137024 -273800 -23937.5 9796.94 
63 1 34.3194 32.4417 0.996183 0.336945 -128550 330842 37269.1 53230.1 -57474.6 45721.2 
110 1 34.3295 30.7058 2.80797 0.204057 -324340 -635534 2530.11 609758 23329.4 -51646 
2847 1 36.1198 32.6138 2.84151 0.172357 -108365 42909.8 40524.5 361056 182604 137404 
52 1 21.7935 34.3673 1.01164 16.1941 -157286 888508 964884 -20657.5 -192719 175333 
1281 1 21.6789 36.1317 -0.743349 18.005 135453 344756 361633 -21660.9 -205990 -134954 
56 1 25.3079 34.4114 1.13998 0.336454 -354599 126621 -390157 277601 302710 -362247 
1283 1 23.4912 36.1399 0.99685 0.394177 -353343 -381746 305596 -254404 -246622 309461 
114 1 23.457 34.3266 2.82189 0.649907 -523482 228764 73839.7 -105362 -16134.7 -241695 
60 1 28.949 34.2592 0.956919 0.544947 197314 -443614 187749 -50990 -135332 28624.6 
54 1 26.9805 34.3875 -0.693622 0.880376 -490604 -653493 251603 -168123 -98313.3 341316 
1289 1 28.8849 36.0314 -0.761995 0.180724 531587 -135478 -23417.7 -136800 136950 368733 
1291 1 30.6398 36.0683 1.18225 0.473836 -589467 -74409.3 88224.4 -229227 231418 308696 
1365 1 32.5337 36.0796 2.85076 0.253877 194727 -19659.1 62375.2 -332447 -257266 281616 
64 1 32.4743 34.2654 1.03491 0.0864837 428171 -339593 84389.8 -337683 118326 120770 
1293 1 32.3755 36.0299 -0.773372 0.372127 -127534 -426763 445861 12799 -296992 238759 
1295 1 34.3381 36.003 0.930664 0.771356 -552525 -442854 265268 501210 229410 -71724.1 
2778 1 36.0223 34.4082 1.09462 0.581974 -446224 -818725 254571 410848 94410.2 166285 
129 1 22.0098 21.9792 6.55904 32.0338 493090 687441 1.21917e+06 -72520.8 627153 -83499.5 
69 1 25.407 21.8485 3.0896 16.0294 531008 287741 853336 143508 -569292 43604.4 
67 1 23.6569 21.8322 4.85943 17.8301 577135 905743 971288 91049.4 625927 -170437 
71 1 27.2954 21.8252 4.71421 15.9494 401721 175707 557114 -371256 -225381 22112.4 
75 1 30.8075 21.7611 4.7105 18.319 788694 -208156 1.11091e+06 -115281 -122534 -134299 
141 1 32.646 21.8471 6.58277 16.3968 665687 -199730 863264 -20735.6 -270348 117230 
79 1 34.3509 21.7156 4.65493 18.6589 1.2408e+06 647674 1.46135e+06 -158366 299468 106897 
65 1 21.945 22.2587 2.95504 25.7024 630586 736688 1.30226e+06 -129844 169910 128124 
81 1 21.9481 25.3579 2.94506 13.6054 25749 -275481 -851304 193432 247110 -347880 
68 1 22.0625 23.8765 4.89129 11.2424 -82912.5 67311.4 -175277 -435104 -239264 -143662 
85 1 25.5516 25.4377 2.96408 0.112065 -485312 -570038 -1367.58 -258601 82202.7 -27214.1 
66 1 23.8673 23.7574 2.98425 0.64668 -807502 -1.35486e+06 -111794 -344473 111525 -349814 
72 1 25.5329 23.7219 4.91719 0.456295 -102294 -158619 -305241 171424 -368082 245593 
83 1 23.8118 25.5122 4.80384 0.520771 -935395 -1.02221e+06 137934 -410298 -47192.3 -84890.5 
70 1 27.1944 23.6234 2.9123 0.31449 -143556 -412327 638321 -11763.8 -273494 80913.7 
87 1 27.3749 25.4233 4.78876 0.203683 -512340 -61942.5 -323540 -379369 454316 39804.7 
76 1 29.0617 23.4797 4.83053 0.575814 -468356 -761930 -6834.12 -174605 -41348.7 -861.069 
89 1 28.9219 25.3474 2.9364 0.537043 -209545 599239 -109397 -172671 212112 -358835 
134 1 27.3141 23.6235 6.5778 0.167143 -782001 -440700 -373704 -240141 -401706 179818 
91 1 30.7784 25.3218 4.64942 0.289375 -254134 -143461 239832 -27251.3 -1916.57 -8678.84 
80 1 32.5034 23.4867 4.7539 0.456761 -13734.9 -664172 -225139 -267205 172419 -132498 
138 1 30.8186 23.4817 6.54486 0.254819 -807219 -392467 -39165.3 12012.7 -56815.9 -117624 
157 1 32.5645 25.2293 6.52219 0.496662 -342008 -343456 -613377 -49645.9 353346 222829 
95 1 34.2384 25.3545 4.82346 0.456113 -431674 -187445 167444 577613 325068 -77332.3 
2796 1 35.9853 23.62 4.73584 0.452813 284611 201903 147761 55375.3 -26151.3 -222709 
97 1 21.7748 28.9542 3.01823 15.9437 361215 434267 761588 -208019 -146594 -643340 
84 1 21.8018 26.958 4.60215 12.63 131900 666898 656142 215719 231408 -684196 
82 1 23.7085 27.2374 3.01636 0.54157 -687298 -224313 -515758 -391789 -369532 -134338 
88 1 25.4931 27.2462 4.79554 0.106132 -407919 -453054 71637.1 -680651 -160431 -8616.82 
99 1 23.5816 28.8975 4.80898 0.292334 43232.8 -94523.9 -274565 392290 -71208.7 -255513 
146 1 23.4976 27.2199 6.58879 1.01313 -222009 -410860 -212094 469099 553451 442452 
86 1 27.3004 27.2769 2.95183 0.404462 -131921 -5781.08 461788 -164231 -196609 -51207.8 
103 1 27.2365 28.9405 4.85891 0.318438 -118044 -444607 486822 -572724 56253.2 -91306 
92 1 29.0958 27.1462 4.75144 0.177406 -288726 -86281.4 458359 -369277 -148955 -101257 
107 1 30.7422 28.9942 4.7056 0.338072 -173121 -317459 635553 167850 -190393 77499.3 
96 1 32.5255 27.0601 4.72439 0.328047 -344829 -12637.8 -187388 178343 299681 -228589 
154 1 30.9053 27.1867 6.57155 0.34061 -535939 145290 -157076 -381440 150527 5561.49 
173 1 32.5919 28.9206 6.53017 0.143932 -411183 -289343 235480 -170651 122898 -87515.4 
2829 1 35.9707 29 2.92224 0.51743 -368300 -265661 337124 880598 127115 -104691 
2814 1 36.0843 27.1683 4.79662 0.173051 -123275 58149 543117 479386 184920 239114 
111 1 34.3584 28.9511 4.79429 0.211538 237028 505087 240644 348230 726059 88122.8 
113 1 21.6576 32.5129 3.00263 19.1164 697691 1.23715e+06 1.40857e+06 78679.2 -70626 -75415.7 
100 1 21.8316 30.7048 4.77874 16.6384 -99759.4 793930 501301 -1120 -84266.5 -36658.4 
98 1 23.4659 30.7531 2.9182 0.258437 -144436 511370 737221 -441427 424199 17236.4 
117 1 25.2615 32.4947 2.97278 0.263522 73023.1 -187666 -85298.3 -82485 65195.8 -299160 
104 1 25.4516 30.7186 4.77883 0.33811 396040 165445 369076 -174095 198026 396528 
115 1 23.5691 32.5336 4.81455 0.250542 -229080 12298.4 584153 -533265 146248 -58237.6 
162 1 23.5134 30.694 6.56785 0.449197 -110910 14990.7 -11106.6 -96927.3 -93470.6 -66879.2 
108 1 29.0013 30.5927 4.79598 0.779202 -307056 -174188 808883 -121540 67604.1 71832.9 
119 1 27.1161 32.5088 4.76268 0.0991624 -25905.3 -234284 -69695.6 -561332 -274898 -159333 
185 1 28.888 32.5921 6.56835 0.530727 -369253 -299781 -178838 -262251 199122 40840 
123 1 30.6363 32.4729 4.79295 0.562035 242085 -284637 149456 31884.1 100483 -63022.5 
112 1 32.5295 30.7441 4.65766 0.183618 177673 318096 385249 -23179 -14105.5 155438 
127 1 34.4016 32.5243 4.72664 0.224369 -231029 -405266 -253386 550886 -74919.9 427861 
116 1 21.7557 34.2762 4.77865 16.9544 88973.1 520506 715713 -208971 -179116 1970.93 
1353 1 21.7328 36.1176 3.12752 15.0002 146476 502540 1.03775e+06 -97950.7 -315903 -193173 
120 1 25.2527 34.2304 4.76141 0.309104 -96218.3 -453345 112087 7460.17 129874 6099.84 
1355 1 23.5258 35.9868 4.8636 0.292724 -517934 -100297 65468.8 -166361 -86497.8 653738 
1357 1 25.2645 36.0049 3.00096 0.307778 -265348 -887421 -27924.4 145818 252967 -372128 
1361 1 28.953 36.0492 2.93947 0.244089 38438.2 439087 211130 103062 116754 387449 
118 1 27.0336 34.3019 2.92602 0.199013 -56390.5 234862 449055 266939 -349169 273819 
124 1 28.8834 34.2792 4.73762 0.138471 -138873 -150674 -176723 159817 -215187 351678 
182 1 27.0757 34.2181 6.57331 0.446003 -122239 -593101 191879 202149 203547 -202405 
1359 1 27.1721 36.133 4.90053 0.662114 91080.8 195289 -253031 216987 -254579 406.435 
1437 1 32.5605 36.085 6.56358 0.237084 37005.9 57447.6 37109 41229.1 -122054 358440 
122 1 30.7575 34.2638 2.93612 0.211264 259206 175873 375908 36723.4 105895 180435 
128 1 32.5513 34.1954 4.75452 0.32351 -561203 59769.4 -478644 20005.6 15649.7 -68236.2 
1363 1 30.7938 36.1242 4.75534 0.251076 495585 106971 255343 -132072 -243484 423164 
186 1 30.6789 34.3371 6.43359 0.876642 79077.4 130369 187156 -281931 7347.18 8924.06 
126 1 34.2927 34.23 2.96685 0.448174 -888290 -659255 -168375 -204955 238092 64817.9 
190 1 34.228 34.2915 6.54995 0.448077 -524635 -327434 131510 277941 99989.8 84333.6 
2850 1 36.1369 34.4391 4.68528 0.330619 -107482 -313471 -139903 555129 -317775 466951 
1367 1 34.2845 36.0372 4.72665 0.162104 -490194 -320785 73462.9 88641.4 242497 -1623.43 
4242 1 36.091 36.0515 2.9378 0.369401 -94657.7 -583021 -820374 -319321 237774 239392 
133 1 25.5695 21.9215 6.61187 15.3469 251833 -43950.1 51866.9 -270593 207478 409525 
131 1 24.0348 21.8229 8.43426 13.8421 900519 462746 881791 -426730 579810 88418.8 
193 1 22.2465 21.7772 10.2012 30.5841 433745 450637 1.12033e+06 38997.9 -226839 271149 
137 1 28.9466 21.7459 6.59753 17.8487 1.00457e+06 35627.9 856981 118728 -219601 190436 
135 1 27.1476 21.8186 8.46163 15.0097 246324 144167 -302716 164262 142576 -97076.7 
201 1 28.9343 21.7312 10.2402 15.679 912846 322470 1.11003e+06 55587.6 -64651.1 156283 
139 1 30.7292 21.7607 8.4803 15.7426 1.01281e+06 417726 1.15917e+06 291035 -131753 -116513 
205 1 32.5715 21.8799 10.1846 15.432 338903 56773.3 380005 -309849 48152.3 48922.8 
143 1 34.4099 21.8568 8.43032 17.0189 638946 -48987.1 463382 -110768 -92238 110614 
2937 1 36.1108 21.7867 10.2832 16.9291 931982 501252 1.21984e+06 233779 -316054 25738.1 
145 1 21.7741 25.3485 6.74451 10.2368 473132 853794 662041 5777.55 -250405 -590616 
132 1 21.9799 23.5635 8.52974 16.5679 559911 698398 767337 -157671 -126986 94438.8 
209 1 21.9498 25.376 10.2837 15.9754 -305577 113811 947163 -365475 -167030 127938 
149 1 25.5955 25.5663 6.6715 0.545718 126326 288619 -68771.3 -358436 -161803 -41454.2 
130 1 23.7375 23.6944 6.67842 0.388892 -248647 106781 196274 -89249.4 -52405.1 -131950 
147 1 23.6806 25.5391 8.38193 0.73886 -85116.9 108413 341586 145729 32328.6 71388.7 
136 1 25.5869 23.7444 8.55452 0.538335 -517623 -891708 142900 -529811 -174161 -78234.6 
153 1 29.1264 25.3601 6.6585 0.198647 -69671.8 -216612 -108243 -159024 -366673 -58052.4 
151 1 27.2668 25.4159 8.51861 0.162056 -526058 -374250 -172299 -476313 -192458 156109 
140 1 29.0114 23.5519 8.41679 0.106555 -340587 -313369 -309026 40623.4 -271032 160877 
198 1 27.3321 23.635 10.2647 0.45101 -446823 -790375 -49534 -596208 -21306.3 32932 
155 1 30.7791 25.3466 8.48942 0.170204 -716955 -524381 42465.1 76002.5 -257946 301255 
144 1 32.5944 23.6327 8.39841 0.216028 110632 -496984 -146784 172131 31559.8 293346 
202 1 30.6515 23.5799 10.2514 0.725259 119209 -340005 313157 307807 -208139 82577.3 
142 1 34.4076 23.567 6.6524 0.361728 -672350 -829581 -363955 -139262 227296 343915 
2883 1 36.1235 25.3593 6.60053 0.0929266 -345383 -715437 -422857 158116 275382 -33634.1 
2955 1 36.0746 25.3829 10.2555 0.215049 482898 492181 199695 -57894.6 -141557 109783 
159 1 34.3596 25.3727 8.40084 0.111516 -678858 -439296 155664 -276516 -36980.6 20999.5 
161 1 21.8113 28.885 6.63209 17.2777 -252625 368858 1.00613e+06 314850 110240 380002 
148 1 21.8941 27.233 8.43847 15.9895 -254241 839999 -43460.9 315799 -33785.9 239103 
165 1 25.4026 29.0044 6.61511 0.210064 141643 411638 -466034 -15003 454840 -27076.6 
152 1 25.4858 27.273 8.57018 0.351894 69681.4 -574371 718107 -189853 -191539 38736.5 
163 1 23.798 29.0323 8.45638 1.57883 -549262 -53784.2 238558 -504111 43835.9 146228 
150 1 27.3752 27.2225 6.64439 0.251325 -314145 -519328 -32045.8 -709853 -250431 61905.9 
169 1 29.0527 28.9692 6.73029 0.370164 -410354 -565204 -320693 -543482 -285389 356071 
156 1 29.1457 27.1493 8.39869 0.48025 -218637 -746702 -229958 61814.7 -363147 38854 
167 1 27.2343 28.907 8.51794 0.238173 -267710 -62120.7 257929 -357842 -207300 -343445 
233 1 28.9913 28.9324 10.2599 0.351557 -79090.3 -27415.7 217199 351934 -128983 -143913 
171 1 30.8123 28.9755 8.44077 0.185224 -320566 -192844 -4879.11 -293366 -295469 -22798 
160 1 32.5494 27.0812 8.43279 0.245067 5425.89 239673 346455 -38518.1 -233781 -6942.02 
237 1 32.6779 28.893 10.2517 0.333353 -1.0268e+06 -884874 307530 786173 140979 -10355 
2901 1 36.1146 29.0437 6.73599 0.775224 -163733 -204151 -46520.1 -2862.89 137151 -366223 
2886 1 36.061 27.1028 8.37822 0.470427 3581.44 -187875 -166074 -225645 -162692 -15539.7 
158 1 34.3651 27.1558 6.6011 0.106004 -207384 -245077 -522670 339336 -54144.8 14691.7 
175 1 34.3343 28.9446 8.40367 0.194824 -582670 -105283 -316037 503883 542637 115061 
177 1 21.6539 32.5293 6.69266 17.8494 616861 1.10391e+06 1.06795e+06 -87140.9 -233044 177101 
164 1 21.7259 30.7213 8.38993 16.7743 245088 607001 914702 -623231 192503 263239 
181 1 25.3222 32.514 6.72488 0.292732 190729 205023 567688 -190444 24096.6 -60632.5 
168 1 25.4379 30.6747 8.568 0.483165 -207769 -580526 266013 -672041 -274056 12746.5 
179 1 23.4453 32.3633 8.48539 0.554701 -231831 689708 575043 -504361 12214.3 -46912.2 
166 1 27.2189 30.796 6.66991 0.25631 117739 216930 443530 -317870 -52854.5 -80518.5 
183 1 27.2039 32.5468 8.55585 0.318998 -60860.2 -428247 -52476.1 -48637.1 28171.2 -314580 
172 1 29.0392 30.7813 8.49013 0.169416 -5371.12 -152077 225351 -114156 207514 -293743 
170 1 30.8028 30.739 6.59191 0.121049 56383.2 -206018 -189097 -461673 -135876 86951.7 
189 1 32.546 32.497 6.59546 0.155171 -228675 -575724 163967 -268027 165013 205783 
187 1 30.8228 32.4597 8.44989 0.153503 -101159 127712 601258 -50311.6 380466 -191298 
176 1 32.6379 30.6876 8.40419 0.103156 -566661 -468090 -167755 145638 321057 73076.4 
253 1 32.7133 32.4546 10.2687 0.322092 -292398 -85291.6 592340 43286 -146159 26809 
2919 1 36.1059 32.6496 6.63085 0.272566 -174189 435949 318884 87535.3 238447 -76608.5 
174 1 34.3152 30.804 6.59877 0.228461 45999.3 -343988 -27712.2 278802 336880 -140447 
191 1 34.431 32.4572 8.43241 0.33419 97618.6 251122 -27705 -201049 445274 -270209 
1425 1 21.7063 35.9977 6.69355 10.8743 465522 1.22117e+06 1.16263e+06 316895 151133 -187632 
180 1 21.6415 34.2494 8.53182 18.4644 856460 906553 786577 -16998.8 74041.7 -190727 
1427 1 23.5952 36.0224 8.50358 0.244039 367207 690431 577433 162679 88836.2 -149558 
178 1 23.5031 34.2823 6.68532 0.118295 111275 -35989.3 300343 160518 -31746.8 -16594.4 
184 1 25.3223 34.2241 8.56949 0.329602 298813 -502109 -27995.9 280470 -173289 -18588.2 
1501 1 25.4832 36.0508 10.2364 0.479244 426420 -5627.86 -33276.3 70697.3 -99967.6 11124.2 
1429 1 25.3747 36.0699 6.67779 0.154007 -73241 701343 200043 -22525.7 -112391 118000 
1431 1 27.1335 36.0167 8.36797 0.404786 -131085 557250 -413250 -184236 205479 106748 
1433 1 28.8435 36.1328 6.6188 0.382348 -706701 77154.4 -45515.4 286669 -307811 53380.2 
1505 1 28.9781 36.0821 10.2289 0.195348 96724.4 -123107 14786.9 -162432 512152 417073 
188 1 29.0558 34.2008 8.47301 0.598243 268740 -41194.9 414770 -212505 279324 -173355 
246 1 27.2417 34.2627 10.265 0.230262 -347271 -260389 -403546 97072.8 -262967 -201729 
1435 1 30.6933 36.1241 8.46899 0.216957 35824.7 -25123.9 235474 73337.3 209055 124216 
192 1 32.5479 34.3379 8.34133 0.342307 73949.1 135229 -14177.4 -461314 516538 38355.3 
1439 1 34.2069 36.1344 8.52663 0.384122 -156903 -221903 190534 189191 54365.8 400472 
2922 1 36.1144 34.3962 8.55359 0.455206 186246 -78231.9 -231848 -4403 32370.7 -127174 
254 1 34.315 34.3711 10.2252 0.338885 144097 -281003 -144394 -272739 240734 316934 
4323 1 36.0813 36.1083 6.67163 0.295415 538306 380262 788530 314792 -269669 205638 
257 1 22.1425 22.0544 13.855 26.2551 -157784 -318374 829671 -897626 90168.5 408530 
197 1 25.6983 21.8985 10.3191 14.186 105567 9535.32 -319262 -586510 408450 50092.6 
195 1 23.8725 21.9117 12.0275 14.976 292457 5337.93 699096 -50492.2 170497 62034.4 
199 1 27.2404 21.8432 12.2532 15.6534 561916 337810 349952 -251326 -388361 -298677 
203 1 30.8461 21.5437 11.9201 16.5221 1.64663e+06 1.04998e+06 1.79461e+06 -72875.4 82343.6 262153 
269 1 32.5183 21.8901 13.9729 14.5506 518349 -303561 1.00329e+06 180994 387113 132956 
207 1 34.2291 21.6667 12.1009 16.128 1.54483e+06 754648 1.30071e+06 370568 63483.5 21728.4 
196 1 22.0623 23.6006 12.0732 15.9301 -127538 -200469 379757 -187169 268306 879741 
194 1 23.7437 23.7068 10.2904 0.254134 -921600 -381961 -110644 -317296 111772 70635.9 
213 1 25.4819 25.495 10.361 0.186513 104216 -490909 -229197 -865861 143964 149217 
200 1 25.5106 23.7688 12.1203 0.850555 -588203 -631438 293461 -898615 -81729.5 -30919.3 
211 1 23.6214 25.4423 12.1455 0.239663 -373391 63236.2 276982 -536549 -119072 -176133 
217 1 29.0677 25.3939 10.3305 0.217471 -654229 -484305 386173 289211 -50814.7 -321042 
215 1 27.2156 25.333 12.2533 0.342379 -221087 -57601.9 557201 -1.20193e+06 -226919 163820 
204 1 29.1217 23.4691 12.3015 1.12159 493772 382322 456390 -546328 -256480 51802.9 
219 1 30.7723 25.3985 12.2291 0.32461 -215942 -185.766 48258.4 -44586.1 -18908 -104653 
208 1 32.5399 23.5191 12.1087 0.223189 743867 -143919 189173 150206 109377 293350 
221 1 32.5465 25.3206 10.3392 0.15772 459793 415554 167115 88555.3 -288596 43143.6 
285 1 32.6122 25.3656 13.9656 0.255275 318256 414506 155195 -178883 -110910 298637 
2940 1 36.1365 23.63 12.1535 0.264061 179610 -328424 27796.3 384016 -42870.5 254209 
206 1 34.3663 23.5433 10.2951 0.15194 -256214 -593450 357614 -211382 23927.3 -366365 
223 1 34.351 25.3191 12.1093 0.120756 -345540 -125291 2221.51 428896 120607 -334429 
270 1 34.3633 23.4872 13.9769 0.270217 186363 117096 621541 -192585 24157.7 84734 
225 1 21.8152 29.1062 10.3075 13.7604 -217984 170748 1.25203e+06 -343897 -198447 66820.3 
212 1 21.7682 27.3332 12.2161 15.0771 95919.7 1.45796e+06 1.32768e+06 -583900 300117 -112079 
229 1 25.3408 29.0206 10.4332 0.384057 622385 165416 -321931 37868.8 -374662 141276 
210 1 23.3741 27.2488 10.3619 1.81069 -393276 -121899 198289 -333531 -183737 65232.7 
216 1 25.3531 27.2499 12.1987 0.268544 525208 340371 394903 -177501 455061 84491.8 
227 1 23.5104 28.9737 12.3228 0.32768 -431694 -739343 -4171.12 -110248 33415.5 203045 
214 1 27.2653 27.0871 10.4078 0.442558 -398268 -135231 159197 -520718 -594054 -88159.5 
231 1 27.2163 29.0262 12.1644 0.226028 224969 -306823 -31695.9 -63417.3 -39835 -141614 
220 1 28.953 27.1151 12.1831 0.289437 -524516 266288 -376599 111272 -141970 -132029 
218 1 30.7802 27.2063 10.3663 0.309954 44468.9 -16774.5 238885 -85337.9 -128231 -172775 
235 1 30.8726 28.919 12.1619 0.09475 94430.7 -404950 112563 286450 -152828 -70802.4 
224 1 32.621 27.092 12.2103 0.237279 -185100 -656605 -206122 45409.3 58648.2 -123418 
301 1 32.6654 28.827 13.9379 0.576253 -57050.1 283859 -440528 -15899.4 -22755 -120122 
222 1 34.3073 27.2614 10.3351 0.625832 -682245 -582104 297280 561716 41221.7 14486.8 
239 1 34.3922 28.9028 12.2136 0.190503 -580498 -134457 -490282 152411 81872.6 -59852.7 
2973 1 36.1492 28.8703 10.2988 0.154411 71592.5 190223 581466 -70750.1 6116.42 184783 
286 1 34.499 27.0215 13.974 0.715623 -903678 -754028 -107345 -101804 -26847.1 -8017.17 
241 1 21.7027 32.4708 10.3443 17.3745 369485 1.51854e+06 1.56795e+06 -8417.1 48927 23952 
228 1 21.6469 30.6017 12.3768 14.2362 136785 1.2739e+06 1.07786e+06 295702 -218654 22398.2 
226 1 23.4931 30.7086 10.4921 0.654636 -475382 -608896 570142 -486181 -227434 -213527 
245 1 25.2897 32.5256 10.2948 0.340079 549384 -250873 -66753.3 26998.6 90267.5 -141614 
232 1 25.3634 30.7482 12.2481 0.0814584 33269.8 -301995 100679 190845 -448812 -532197 
243 1 23.5078 32.4346 12.2281 0.287646 161508 212530 -7890.79 130189 -21872 -218361 
309 1 25.3421 32.4907 13.9547 0.248566 471421 -102331 -191473 -168759 -3513.77 -235756 
249 1 29.0912 32.4964 10.3269 0.202718 258733 160268 -210662 48566.1 -28553.3 -46892.2 
230 1 27.2561 30.7246 10.3 0.198172 76484.8 -73244.5 33178.3 17434.4 -170702 82697.6 
236 1 29.1388 30.6456 12.1026 0.454626 -71425.8 -195718 344745 -84844.2 151715 40441.4 
247 1 27.2224 32.5108 12.0987 0.119127 561062 -4216.32 314284 -331950 164464 132741 
294 1 27.2833 30.7454 13.8626 0.731489 158081 16439.6 292461 -150835 -78903.3 -195998 
234 1 30.971 30.6711 10.3477 0.504307 -11911 100420 -33444.9 55885.5 55490.5 87992 
240 1 32.6214 30.7041 12.1798 0.127753 -258407 342204 -223561 -18212.5 23144.2 193862 
251 1 30.8128 32.5513 12.1821 0.18859 120913 517453 224780 -197166 -444496 160933 
238 1 34.3636 30.712 10.376 0.373232 75631.1 -219153 484391 323571 79203.3 -108374 
255 1 34.4652 32.5667 12.06 0.535424 525370 403549 537227 -178335 -365365 -295123 
1497 1 21.7529 35.9522 10.2914 16.093 451825 994159 1.03267e+06 414809 63607.3 -207100 
244 1 21.6562 34.3574 12.2164 17.3282 636350 1.49354e+06 975035 28840.3 -24710.9 415257 
242 1 23.4854 34.2484 10.4599 0.581006 -510854 310135 665665 523101 -287044 152311 
248 1 25.3468 34.2803 12.0219 0.497113 245647 448427 82815.2 126319 -250358 -112467 
306 1 23.5725 34.4108 13.8627 0.719289 -132803 376177 305950 -108146 -239263 235053 
310 1 27.1321 34.2421 13.9629 0.374287 -41207.4 -62323.3 574054 -95725.9 34574.7 -91364.3 
252 1 28.9144 34.3385 12.0763 0.410179 225873 -160464 305112 -149209 -225922 -229716 
1577 1 28.8548 36.0334 13.9383 0.452693 107186 210576 40021.9 -181867 -179142 -18586.7 
1507 1 30.754 36.0772 12.2153 0.207392 -325222 -53695 347842 -613335 142709 -258866 
1509 1 32.5044 36.1166 10.3413 0.152469 -1.06575e+06 -1.01831e+06 -185954 -506525 127266 -2228.04 
250 1 30.9555 34.3765 10.289 0.933609 211958 -45566.8 309622 -646715 -86712.9 84682.1 
256 1 32.5984 34.3288 12.2276 0.26615 -121198 274017 106060 -140090 -665830 346753 
1511 1 34.3788 36.1346 12.0497 0.372321 -96306.4 -299890 -4859.85 -37603.7 38804.8 -10867.4 
4404 1 36.1329 36.1446 10.2903 0.152951 -77060 -310586 -356934 -224339 103615 -154972 
318 1 34.3062 34.3996 13.9315 0.20103 -206674 654786 -203798 14737.6 -313120 -159803 
261 1 25.564 21.5451 14.0561 12.952 1.13669e+06 997472 1.13297e+06 -243884 233956 -129017 
259 1 23.8534 21.766 15.8769 16.5145 -21529.7 -20460.6 589926 -127994 48781.4 60495.7 
325 1 25.4836 21.6401 17.6411 10.6234 718292 645588 730829 -108877 -2756.45 208495 
265 1 28.9075 21.7187 14.0641 15.8264 1.36223e+06 221484 896345 200952 -158214 117434 
263 1 27.2059 21.688 15.9108 16.5789 406328 476832 554765 -155830 190221 111091 
329 1 29.0327 21.5884 17.6618 16.4101 1.40253e+06 644921 1.16296e+06 -256151 70439.4 394855 
267 1 30.9255 21.7511 15.9774 15.2615 730224 -159751 624703 -24234.5 182285 -378781 
271 1 34.3725 21.6926 15.9367 19.1785 1.43604e+06 469594 1.70338e+06 -149983 -268290 -99173.9 
273 1 21.9724 25.313 14.1199 15.0836 722188 1.59771e+06 1.33862e+06 -128569 41525.2 -99030.6 
260 1 22.1231 23.5377 15.9284 15.0558 603653 325342 728425 166567 47647.4 545171 
258 1 23.8431 23.534 14.0142 0.601005 -970324 -533329 398503 -1.4693e+06 -202381 -44515.8 
277 1 25.3789 25.4397 14.0931 0.527768 292520 -10808.6 309051 105523 371561 -45367.6 
275 1 23.7889 25.5077 15.9518 0.471549 -713275 451661 -288921 -29186.4 -55981 -35268.5 
264 1 25.457 23.5818 15.878 0.215464 -170238 24008 -38757.6 -317908 -44658.6 186420 
341 1 25.5294 25.5618 17.6221 0.917948 -304866 -339371 -256545 -101802 -410848 491490 
281 1 29.0461 25.3225 14.0591 0.178432 -662247 236183 -136410 -166123 88359.8 -133530 
262 1 27.1729 23.5095 14.0846 0.328191 605139 -186053 59396.7 120781 255315 -268829 
279 1 27.3275 25.3256 15.8576 0.417377 221929 687800 450018 -267698 241771 -189978 
268 1 29.0502 23.3808 15.9513 0.607882 269971 -114405 661531 21416 -152032 72090.4 
266 1 30.7831 23.5239 14.0472 0.285374 -238114 -91784.1 445821 727441 -385920 219988 
283 1 30.7189 25.3248 15.8642 0.343123 178795 620369 229013 336162 -171157 -144884 
272 1 32.6228 23.5159 15.9294 0.229842 20159.3 -320658 436402 -595823 -88261.5 -432137 
3012 1 36.0989 23.445 15.8586 0.347819 132223 -411738 628911 201292 -194293 184138 
287 1 34.3358 25.2514 15.8883 0.0837715 8561.28 118926 676334 -3571.13 -269147 51700.4 
289 1 21.7276 28.9412 14.2158 16.0617 179834 365567 621317 -301517 -118392 563105 
276 1 21.8346 27.1371 15.8372 16.6334 503363 630384 935441 -9375.38 55044.4 270558 
274 1 23.6738 27.2268 14.0245 0.328437 47341.5 -35072.9 239772 115763 406472 362435 
293 1 25.4523 29.0278 14.1308 0.373093 179541 -79809.5 227711 -124601 -102041 -100113 
280 1 25.5848 27.2521 15.9532 0.57028 56533.3 -738840 -334649 -649986 -62109.3 567384 
291 1 23.5869 28.9794 15.942 0.224349 215159 436181 -304888 -322696 -549768 142911 
357 1 25.323 29.1134 17.6541 0.531178 -489253 -242943 -214650 -188591 -242584 32734.5 
297 1 29.0745 28.9639 14.0846 0.268866 -525483 -295854 387047 -49865.7 -68433.2 60404.4 
278 1 27.3103 27.2961 14.0125 0.512118 278180 326724 289845 -168807 429072 -163792 
295 1 27.2784 28.9939 15.8813 0.185751 -148749 -173381 56191.7 -480010 -93116.6 -47623.4 
284 1 29.0688 27.148 15.951 0.261524 -310223 -221149 78644.8 -5811.12 208995 62729.1 
282 1 30.6903 27.1322 14.0085 0.522346 8275.94 -665971 -106836 -6862.81 133662 -420543 
299 1 30.8708 28.8562 15.812 0.614221 15939.5 -32182.3 409583 -448004 -309231 113001 
3045 1 36.0059 28.9041 14.065 0.716319 -275227 -328437 -403104 -170538 64122 -1021.73 
288 1 32.6794 27.0949 15.8832 0.415856 407401 149998 739935 178108 -186369 16957.2 
3030 1 36.1118 27.1183 15.8937 0.21522 170666 -24990.6 -8043.38 322809 -233460 -358042 
303 1 34.2995 28.9575 15.8118 0.50663 -446027 -94295.5 88853.2 -80168 190111 173763 
305 1 21.7693 32.628 14.0397 15.931 301133 587122 333264 -35290.5 78462.4 45630.1 
292 1 21.6766 30.9727 15.8831 14.772 503972 1.50242e+06 1.19767e+06 -297571 77101.6 24791.8 
290 1 23.4542 30.6833 14.1013 0.504368 -243994 -84781.7 -27995.5 -218464 -195486 -87437.4 
307 1 23.588 32.5875 15.8251 0.345907 -841193 -99423.5 644213 -410525 -236766 44579.2 
296 1 25.3988 30.8444 15.7783 0.396764 340697 -267443 -64029.1 -25969.8 -334015 11573.2 
354 1 23.5004 30.7663 17.6739 0.351242 10269.9 84717.9 648684 202844 127108 60407 
313 1 29.0837 32.5608 14.0253 0.217891 -98211.3 297113 534313 -440353 -34741 13066.4 