ITEM: TIMESTEP
2400000
ITEM: NUMBER OF ATOMS
5780
ITEM: BOX BOUNDS pp pp pp
1.0715845244678430e+00 7.1228415475547706e+01
1.0715845244678430e+00 7.1228415475547706e+01
-2.1293714191754406e-01 7.2512937141933108e+01
ITEM: ATOMS id type x y z c_csym c_2[1] c_2[2] c_2[3] c_2[4] c_2[5] c_2[6] 
3 1 23.7851 21.7 1.74303 14.3077 360196 355106 116103 24011.2 -410845 -222033 
5 1 25.2903 21.7194 -0.20447 13.3486 994597 266536 603238 192372 -48069.8 -28476.1 
1 1 22.4029 21.5394 -0.174988 27.9336 577886 696991 719463 -172142 -256177 -91469.8 
7 1 27.0592 21.6461 1.60827 16.4112 1.40593e+06 237529 1.38375e+06 157963 -399850 50154.5 
11 1 30.6952 21.6904 1.56741 17.8224 431774 305454 531780 45650.8 -147395 88728.3 
77 1 32.4568 21.6217 3.27379 16.7817 836219 444644 871421 252616 -112167 207522 
13 1 32.4364 21.7875 -0.168327 15.0771 454260 -173722 525065 98228.1 33589.5 -49186.4 
15 1 34.2385 21.6397 1.49919 18.0546 631083 343109 565857 96775.9 -352733 137962 
2793 1 36.0071 21.5911 3.24994 16.5809 1.07859e+06 170145 1.33639e+06 410923 -74222.9 93215.3 
4 1 21.9773 23.4326 1.58495 14.3539 288898 424104 238794 102452 170461 556830 
81 1 21.8314 25.2104 3.35459 10.4423 407393 1.02802e+06 1.08883e+06 85806.5 51656 202744 
17 1 21.7568 25.2837 -0.172278 18.1053 850929 613584 882940 22099.1 -68247 -122072 
8 1 25.5221 23.5832 1.58754 0.405985 -102895 -258051 313010 -92992.3 -1377.61 -201849 
19 1 23.754 25.4227 1.62579 0.697827 -29649.2 -418688 68397.6 -165967 -64393.3 -193045 
2 1 23.7038 23.599 -0.161587 1.01473 -995811 -325331 131139 -442775 -164947 -49366.2 
23 1 27.2294 25.3035 1.5921 0.257385 -433443 -235048 -254709 -211471 292126 365447 
12 1 28.8999 23.4426 1.67993 0.26767 286556 89269 291573 377973 119735 45434 
25 1 28.9886 25.2538 -0.195959 0.180203 -319518 390385 209080 172983 26423.2 158244 
27 1 30.7666 25.3227 1.54265 0.157848 -19900.6 328017 -155649 516265 -31380.2 -203022 
16 1 32.4819 23.5092 1.59891 0.134586 91503.9 -702343 -233370 104905 44876.5 -224286 
10 1 30.7083 23.5382 -0.199633 0.23789 -290132 -690886 135059 437648 -285746 223734 
93 1 32.5768 25.3413 3.33364 0.137922 -435695 284272 -286891 151055 554334 -352017 
31 1 34.2919 25.3828 1.62608 0.331645 17199.3 209428 -137942 -94903.7 494224 -51545 
2724 1 36.0896 23.4951 1.58026 0.231582 277938 121981 102358 -206249 121387 60042.9 
78 1 34.4077 23.4122 3.35544 0.376363 -228553 18484.6 -95080.2 312873 147238 -34442.3 
20 1 21.8733 27.0635 1.54847 16.9284 255691 465914 883528 8650.49 -21818.1 -311228 
97 1 21.8099 28.9124 3.23722 16.0701 404895 945657 908762 -170141 129407 70602.2 
33 1 21.7997 28.9113 -0.21211 16.4876 391124 1.1042e+06 884103 -215443 117835 166962 
24 1 25.3888 27.1464 1.67639 0.483229 -1.38464e+06 -1.04721e+06 -195667 -280774 353294 179630 
35 1 23.671 28.7937 1.5537 0.533557 -951001 -58961.2 138802 21685.6 27180.9 72988.9 
101 1 25.3744 29.0168 3.33393 0.373927 -348304 -216342 -443818 111976 167613 -54736.6 
39 1 27.1185 28.9263 1.64111 0.246336 -68407.3 -60646.4 -496698 -236574 214089 -274082 
28 1 29.0241 27.1823 1.70498 0.294507 -55509.9 116558 298617 -129720 -181971 265446 
22 1 27.1642 27.1474 -0.00142701 1.17806 371420 -282023 -287037 104040 -114699 231253 
41 1 29.0524 29.0027 -0.0809473 0.569924 -157625 199524 -104596 2758.24 -420627 81222.9 
43 1 30.7793 28.9314 1.59832 0.253018 -511994 -163905 56537.5 -128417 -667111 141974 
109 1 32.5547 28.9848 3.4211 0.239797 -262736 -378756 -675407 -67032.3 6309.19 75585.9 
32 1 32.593 27.3049 1.51859 0.869048 -112099 144830 175628 335335 138670 -15482.4 
47 1 34.4033 29.0092 1.518 0.29257 -364093 -215302 9195.49 -23359.3 -171446 107462 
2742 1 36.0891 27.1634 1.53231 0.16284 -144015 8785.23 -114924 -62971.1 121766 -170610 
94 1 34.4031 27.1492 3.35995 0.10965 -96585.2 -531586 -651760 -245420 156588 -647851 
2829 1 36.1115 28.9414 3.31288 0.291173 -434635 -446774 -60458 261138 2905.66 -301060 
36 1 21.7923 30.6906 1.49724 16.4688 702624 657113 566622 -179433 8194.85 291792 
113 1 21.7357 32.4858 3.41794 15.1366 107411 411870 125725 27807.7 -346825 630766 
40 1 25.1898 30.7837 1.56373 0.768542 378404 -67585.4 -465526 -19617.9 111422 1616.98 
51 1 23.4684 32.6126 1.54513 0.441887 -1.00763e+06 -446359 -311712 606782 -562581 527774 
98 1 23.5688 30.7337 3.36928 0.182834 -702653 14592.8 90617.7 -17740.7 314923 333331 
117 1 25.204 32.6107 3.30356 0.434983 112132 -250024 99508.1 -43024.4 -147119 -101431 
44 1 28.8911 30.8595 1.58411 0.513597 357712 -168838 -138125 265016 -193104 -114111 
55 1 27.1744 32.6008 1.63223 0.212053 211676 95752.9 500720 514931 4374.55 2456.77 
121 1 29.0709 32.5819 3.39701 0.423003 367931 -5124.08 117259 -42740.7 -218445 -23586.3 
59 1 30.8681 32.564 1.50746 0.450653 -414560 -457095 163777 -140592 -49118.6 -371660 
48 1 32.5426 30.7345 1.62322 0.29162 -317504 195637 15534 190086 -199125 170209 
42 1 30.8591 30.7395 -0.149312 0.476528 -55412.4 -217054 -276100 15190.8 -223658 -132577 
63 1 34.4075 32.5349 1.55601 0.0925194 -357660 -21968.4 -69287.1 524143 158866 -200260 
110 1 34.4437 30.7007 3.41984 0.173276 -397357 -347584 -135930 303888 -190990 -330041 
52 1 21.6455 34.1332 1.60136 14.7066 -269797 948751 1.005e+06 599478 109376 147913 
1357 1 25.2557 36.0836 3.36548 0.566256 185984 -530242 183158 -108732 268370 327023 
56 1 25.3823 34.3937 1.55552 0.35772 109548 -39974.6 -109860 36029 118742 19867.6 
114 1 23.4761 34.4294 3.33788 0.297806 -666815 -383116 -112754 -95489 -20283.5 147939 
1283 1 23.4231 36.1041 1.49548 0.890908 -203703 229735 -329755 334271 179021 415678 
50 1 23.4024 34.2724 -0.174359 0.58619 -96754.6 -202484 -667912 -337762 -171870 237720 
60 1 29.0388 34.3516 1.65521 0.335476 353900 136216 119678 -227502 -88312.5 153956 
118 1 27.0986 34.3802 3.40668 0.128133 116789 380974 226009 -47428.7 -109115 -149868 
64 1 32.6267 34.1886 1.67814 0.853331 -468157 -698784 -343006 -238188 91332 102365 
122 1 30.811 34.3672 3.37415 0.234157 -343037 -114132 -127472 -219855 26491.7 131036 
1293 1 32.5528 36.0075 -0.121577 1.03792 -788910 568974 -129042 -157651 -94667.6 -148077 
1295 1 34.3198 36.1385 1.57143 0.308601 183452 423386 226952 -15086.7 -141834 -144735 
65 1 21.8417 21.9928 3.43464 28.439 620783 6396.22 462097 -275294 -4924.24 216658 
69 1 25.2982 21.7371 3.7386 13.1047 929030 -232075 906887 250011 -412167 -688069 
67 1 23.4249 21.7158 5.43573 15.5176 232275 434144 738235 225132 508979 -369103 
73 1 28.8496 21.5675 3.44937 11.5191 908373 474649 788454 400007 391083 127072 
71 1 27.2884 21.5274 5.26286 16.5494 793900 593731 412864 -178705 -4150.76 -52650.3 
137 1 29.0358 21.7076 7.01748 16.3401 517645 289299 646625 -146112 -292064 161551 
75 1 30.756 21.7196 5.2141 16.1419 1.2041e+06 171002 710493 60166.3 196254 18683.5 
79 1 34.2327 21.5781 5.14598 12.1363 1.13227e+06 192458 954035 271767 -38262.7 -82607.7 
2865 1 36.0266 21.5976 6.95508 17.5031 798555 337939 981755 420473 72818.5 45964.4 
68 1 21.8261 23.6043 5.22667 15.9869 302092 6789.88 646467 -5036.45 553.477 -136453 
145 1 21.7382 25.3633 7.0526 18.5619 518608 411181 71491.2 -56724 45662.3 559986 
85 1 25.5898 25.3732 3.42499 0.80036 -193108 -118498 -481150 -224324 -304296 -91153.4 
66 1 23.7073 23.562 3.46187 0.369043 -504367 -289375 334204 254232 -361279 -337835 
72 1 25.3549 23.4918 5.32666 0.354366 212773 -72490.2 -327346 82743 -654778 -669597 
83 1 23.6502 25.306 5.27385 0.113809 182939 -123314 603638 189544 -97572.4 -140030 
89 1 28.9296 25.3105 3.43433 0.19308 470861 197965 267303 -1199.59 -414340 93998.5 
70 1 27.2334 23.4184 3.5047 0.45775 -139131 87963.8 324718 186389 -113876 60366.1 
87 1 27.1149 25.3865 5.3583 0.518054 -354326 153485 -501599 59495.4 -254648 -164240 
76 1 28.9426 23.5081 5.25348 0.246996 154370 176151 74971.1 -15918.6 -350550 203306 
134 1 27.0644 23.3553 7.02756 1.25078 -64248.4 -174716 -117200 12795.5 -323626 421480 
153 1 28.9158 25.3108 7.05629 0.20414 355211 303852 -210190 314447 -228922 222514 
74 1 30.7789 23.4734 3.45301 0.218138 436923 -95598.2 -23141.5 274295 170528 -263313 
91 1 30.8211 25.2649 5.10882 0.47203 294246 75885.1 -16441.3 -124690 -110293 1851.91 
138 1 30.7948 23.4764 7.01583 0.13835 -175973 -335988 237071 -15568.5 -231649 -95568.9 
157 1 32.5008 25.3614 7.04916 0.576913 -66474.7 223826 -145842 -309997 -290253 -134568 
80 1 32.6654 23.4851 5.17886 0.392855 -220164 10391.3 407618 108634 -283944 228331 
95 1 34.3696 25.3026 5.1573 0.111078 3618.97 57171.1 106072 -179401 -147824 122339 
2796 1 36.1145 23.4299 5.09635 0.186683 -419288 27802.3 -377426 285561 40264.9 325081 
142 1 34.4345 23.4281 6.86792 0.880121 -260961 -681698 -283258 -171533 -172939 62036.7 
2883 1 36.087 25.2912 6.98239 0.40125 -365959 -141146 -104404 -130074 178663 -199720 
84 1 21.9222 27.145 5.23349 16.011 -285099 1.04095e+06 895195 -209367 23461.9 164175 
161 1 21.7716 29.0869 7.00388 16.1462 433821 1.17052e+06 1.12942e+06 -318009 -74365.2 15526.5 
82 1 23.6199 27.04 3.4614 0.458584 -274490 168264 -707294 -13021.2 276822 -306639 
88 1 25.4057 27.2029 5.22455 0.101963 -171341 32623 218006 152494 -31021.1 -169477 
99 1 23.538 28.9611 5.13741 0.154059 -94091.7 -47510.5 423246 -319046 25400.5 107627 
146 1 23.5906 27.147 7.03465 0.130493 -170548 202784 -151753 -169485 -259363 -96318.3 
165 1 25.294 29.0294 7.03538 0.205997 363077 -146593 -365985 -139457 377403 -465627 
105 1 28.9416 29.0657 3.45212 0.292592 -21190.9 70281.1 313856 -644617 -11452.8 -198978 
86 1 27.2018 27.1927 3.45742 0.119698 -513512 -312828 -42266.3 -297953 29624.3 116348 
103 1 27.1848 28.9951 5.26121 0.0891759 125634 -2562.69 123858 -112993 54148.4 -17840.7 
92 1 28.9716 27.1481 5.25851 0.1015 -29784.3 488402 137997 -72408.1 -274732 2859.32 
150 1 27.2018 27.1747 7.04355 0.120118 -286986 -214037 -553386 -168723 164946 -354588 
169 1 28.962 29.0647 7.05391 0.224314 188394 -301311 -161602 -70367.9 -202816 35691.5 
90 1 30.8503 27.1092 3.45473 0.370621 -107498 -8887.86 -183224 -5983.33 -561127 117631 
107 1 30.831 28.9634 5.1613 0.277871 -119610 -496575 -356892 152566 166826 485270 
96 1 32.5859 27.1846 5.1778 0.256611 -815090 -236073 -251800 -256728 -151157 72951.1 
154 1 30.7769 27.2226 6.91709 0.520432 -103572 137723 165945 -121752 -206291 95596.2 
111 1 34.3954 28.7674 5.14498 0.657342 -176837 -198167 -67896.1 -373195 -55856.6 -124313 
158 1 34.3787 27.0617 7.02348 0.163869 -97879 -442662 -209840 163761 73266 92614.5 
100 1 21.6851 30.7568 5.10584 18.5774 466038 704023 836830 -69738 5448.78 625640 
104 1 25.3185 30.8297 5.22758 0.116754 -44188.6 467411 -208074 -290884 267394 -96368.7 
181 1 25.2132 32.614 6.99894 0.233282 300746 -104658 86733.4 -50190.7 -44694.3 -281582 
162 1 23.4831 30.8571 6.93597 0.248328 -294837 -15203.7 445150 -502500 59174.3 -62080.1 
102 1 27.0598 30.8427 3.47703 0.397661 462201 7305.92 174190 -122404 355277 -213167 
108 1 29.0087 30.7869 5.31418 0.353221 149310 7464.25 -60054.6 -61252.9 120156 121364 
119 1 27.1479 32.5739 5.18739 0.121415 579678 -269833 136784 -213995 46210.2 -201485 
166 1 27.1186 30.8605 7.01371 0.177716 35754.2 427495 -103590 245124 -9810.55 -2988.08 
106 1 30.7079 30.7088 3.42819 0.387199 -326403 -285726 406381 -41606.3 199627 267105 
125 1 32.6063 32.4995 3.45021 0.133687 347420 -81870.7 -139373 4961.79 -102511 475288 
170 1 30.8105 30.8177 7.04412 0.0759974 -220708 130681 -208948 -218074 -32404.8 -143582 
2919 1 36.1301 32.5307 7.0253 0.253445 -862251 200197 -684198 -64663.6 297037 274056 
112 1 32.6439 30.7341 5.23047 0.0859635 382963 196725 350232 -561705 165612 -23323.3 
127 1 34.4347 32.4262 5.22348 0.338294 -464811 -419436 -259885 -87365.7 -225403 -46516.3 
116 1 21.6662 34.4706 5.05967 15.0882 185246 534959 865987 207399 233108 186202 
177 1 21.6694 32.7339 6.89753 15.1665 -48842.4 1.32188e+06 1.22133e+06 -376105 430057 82970.2 
115 1 23.374 32.6694 5.18761 0.475276 -741679 168133 -372844 -121830 -106094 180039 
120 1 25.2544 34.3511 5.15463 0.190689 459937 316470 228352 -190544 -34014.5 342126 
1361 1 28.9497 36.1273 3.45412 0.181717 202248 -461397 265578 32244.5 232565 30220.7 
1359 1 27.1229 36.1334 5.33654 0.205568 11183.5 -558583 -147279 174963 382813 406626 
124 1 28.9513 34.4113 5.21105 0.204092 275654 -153898 -153126 319519 299317 789550 
185 1 29.0479 32.7738 6.98419 0.940485 -194761 -231883 -231790 276268 102739 229394 
182 1 27.1797 34.3581 6.97935 0.396175 150290 -268539 208521 485099 154230 247938 
123 1 30.8091 32.6781 5.29786 0.321717 -36578.8 431389 74982.9 -129832 250995 149139 
128 1 32.6617 34.3721 5.28622 0.200272 -260966 47441.7 -161373 17945 -389387 330686 
1365 1 32.6513 36.0821 3.42428 0.282268 -174361 174455 9785.07 -179012 243817 124374 
126 1 34.4188 34.2629 3.42889 0.278305 64276.9 389789 359760 204725 -144232 47451 
2850 1 36.116 34.3691 5.34527 0.465588 -45912.2 -47314.2 -264114 -6262.79 520506 -68666.5 
190 1 34.3436 34.4065 6.96812 0.581871 -852792 70024.9 -487657 -175518 225083 244392 
129 1 21.8111 21.9079 7.16855 30.1837 -231518 71152.1 688092 -94093.4 335173 -408141 
193 1 22.0342 21.8837 10.5683 22.6309 -270597 338843 934507 -480794 79285.9 -90867.9 
133 1 25.3732 21.5788 7.12734 12.4005 806293 418821 1.25747e+06 -300045 198370 37215.3 
131 1 23.6718 21.7129 8.8584 16.0747 -96185.6 180926 3052.91 -347876 543638 323546 
135 1 27.1833 21.8714 8.93548 14.0197 535060 -153616 -65050.9 150250 -508898 370384 
201 1 28.8853 21.5633 10.5899 17.987 1.1194e+06 1.10326e+06 1.17759e+06 -18718.9 -443017 121658 
141 1 32.5563 21.7667 7.07385 15.4941 620965 -98331.2 569445 135865 -123579 -174181 
139 1 30.6948 21.6388 8.84673 11.93 874216 368437 625675 45402.6 -171329 -119144 
205 1 32.5187 21.6789 10.6348 18.4735 915560 53904.7 917564 99711.8 233804 -266746 
143 1 34.3028 21.8274 8.84575 15.301 397386 -192205 469375 5869.12 32136.7 -241953 
132 1 21.7738 23.7446 8.72133 14.8508 204000 20982 205978 -391260 582379 183761 
149 1 25.449 25.3789 7.13354 0.38783 -366957 -240403 -687543 -35818.3 276673 -343791 
130 1 23.6108 23.4876 7.18982 0.601229 -782179 -521605 -640775 -466647 72817.7 -201624 
147 1 23.596 25.4085 8.84345 0.170696 -593479 -569747 -34192.5 -141129 -64910.9 -408221 
136 1 25.3169 23.5654 8.89484 0.32896 -769889 -831429 -673699 -149205 -420025 -61359.6 
213 1 25.4448 25.3417 10.5847 0.30148 -208558 -531145 -148261 281314 185252 -254870 
151 1 27.2112 25.2507 8.8541 0.309891 -1.09775e+06 -29459.5 -628709 296026 -5226.3 274117 
140 1 29.0127 23.5986 8.82646 0.583183 -316620 -920025 -164496 9750 -180722 -308832 
217 1 28.9741 25.2524 10.5861 0.388575 -308561 -687721 -1.01857e+06 -352619 -259480 -34124.8 
155 1 30.7588 25.3569 8.82509 0.10651 -509822 -239025 -237418 -193652 229566 -400651 
144 1 32.5191 23.5009 8.82489 0.194166 -317094 -911254 -188788 78442.4 -179847 -379632 
202 1 30.7408 23.4438 10.5773 0.188509 -172714 -28812.1 -337011 438553 -195367 105928 
221 1 32.6067 25.2678 10.5709 0.273332 496620 240838 254201 88056.9 -160081 -64918.1 
2955 1 36.098 25.2891 10.5852 0.361148 690030 293686 260673 -223698 265166 419988 
159 1 34.2999 25.1807 8.69595 0.659915 -708650 93292.1 -138735 -48304.4 134502 304262 
206 1 34.3462 23.4569 10.6631 0.212946 222641 -268547 307012 11260.5 110909 -339346 
148 1 21.7792 27.1672 8.83072 11.2829 51916.3 995055 897483 -15557.1 -164633 -375988 
225 1 21.8248 28.9671 10.5921 16.505 -350409 83133.3 114636 -291581 -101496 -169052 
152 1 25.4471 27.1342 8.78914 0.285104 -209740 -235732 -397611 -277404 72864.9 -126992 
163 1 23.5642 28.945 8.80132 0.124316 -511879 -33102.2 -383556 -521548 345124 -226265 
210 1 23.5796 27.1354 10.5487 0.303866 -61200.6 -482427 -384395 -15747.3 -361598 -29540.8 
156 1 28.9578 27.1641 8.83561 0.0816926 -328890 -64495.5 -160608 178396 -349583 -231345 
167 1 27.1764 28.972 8.90261 0.31055 72863.6 -322511 5631.3 133518 -53080.8 -115015 
233 1 29.0434 28.9767 10.5894 0.374429 -381166 -304789 -167944 -212707 -158424 -252757 
214 1 27.1867 27.218 10.6182 0.303968 -233915 251367 -692445 -303189 -109802 107334 
173 1 32.5571 28.8987 7.11604 0.456835 -171829 -45912.2 -53520.4 -188575 -84764.9 17447.8 
171 1 30.797 28.928 8.811 0.137812 -542032 -54537.3 -1.01875e+06 -226779 75220.5 -179450 
160 1 32.6412 27.0783 8.80983 0.375741 -196208 -705731 -637904 -206040 76381.3 -74375.2 
218 1 30.7106 27.102 10.5547 0.240767 -259419 -396516 -193686 -266000 -80803.6 -4090.6 
237 1 32.435 28.8562 10.6143 0.55224 -86561.1 16373.8 201424 358976 -263359 5239.99 
2973 1 36.0594 28.7709 10.6465 0.723217 -340391 7791.11 268737 -393837 -95289.3 77179.6 
175 1 34.4056 28.8434 8.78856 0.218135 -102272 -246303 -384680 -441632 -411485 311343 
222 1 34.2823 27.2102 10.6724 0.864586 -541047 -300884 56586.2 -562137 -154718 113590 
164 1 21.6984 30.8266 8.86841 17.2989 131207 981494 1.21562e+06 -473141 -304966 -68003 
168 1 25.3179 30.6885 8.76114 0.410838 -11701.8 -408284 -210103 -304056 149718 -441841 
179 1 23.4246 32.5182 8.8578 0.191796 -244988 -253389 214816 -894474 289368 334985 
226 1 23.4918 30.7214 10.5639 0.334488 -874810 -624776 22522.1 -327721 -100358 227394 
172 1 28.9874 30.8616 8.71359 0.51847 158936 139112 -200172 -161631 -109803 -600458 
183 1 27.0307 32.5986 8.87257 0.310643 397709 346736 354543 303472 -249099 -334524 
249 1 28.8827 32.5224 10.5619 0.337271 818910 238323 191483 94315.9 -217296 53741.9 
230 1 27.0739 30.6737 10.6608 0.306131 -90779.8 -108725 1704.81 -246514 -105359 -205595 
176 1 32.6223 30.7503 8.84367 0.161957 12399.1 215261 -121531 73440.1 66494.6 -100218 
187 1 30.8577 32.5625 8.79411 0.161595 -47351.2 -429012 -118908 -97497.3 72682.7 208694 
234 1 30.7653 30.7295 10.5083 0.455458 -329044 -475729 108717 -327831 34213.6 -23941.7 
189 1 32.6659 32.581 7.07104 0.146233 -198939 -225512 -285376 -326034 65977.2 137406 
174 1 34.4897 30.6852 7.07756 0.320216 -142697 -203276 -94017.4 -4184.87 -75927.4 284017 
191 1 34.5062 32.5544 8.77683 0.421783 -350674 65035.7 -221060 353507 -74792.3 -23211.7 
238 1 34.4368 30.7507 10.6155 0.362659 227208 579298 377418 274837 -142769 148595 
180 1 21.6599 34.4843 8.89224 16.9512 419800 1.19318e+06 946092 -207569 77250.2 -50926.5 
1501 1 25.2614 36.0608 10.6687 0.172299 -344915 -415615 -255069 287305 -108305 86536.2 
178 1 23.4177 34.3994 7.07472 0.218339 -408523 49112.3 573597 153717 -102091 -206392 
184 1 25.1778 34.2516 8.87557 0.462019 140072 -181418 53708.3 45644.8 -334583 -188295 
1429 1 25.4067 36.1434 7.13788 0.490468 61858 138839 -234159 84789 6675.48 -60380.7 
1431 1 27.0559 36.1008 8.89242 0.164744 -110797 390908 -345244 193960 -311626 184949 
188 1 29.011 34.3893 8.91286 0.183336 649232 -11691.6 -24885.7 243989 62045.1 -51531 
246 1 26.9971 34.3143 10.6933 0.270525 -15004.6 -259790 -18631.6 130320 -231262 -134214 
1505 1 28.8913 36.0924 10.6851 0.336498 372113 -310453 -305790 278507 186964 205907 
186 1 30.886 34.428 7.16144 0.318475 198662 -133965 291034 -280505 159198 150719 
192 1 32.7362 34.2977 8.92474 0.537705 103637 629108 341141 3770.77 -146576 -203798 
254 1 34.5212 34.4276 10.6558 0.310859 -45220.3 378106 -251454 -175420 -326859 31720 
257 1 21.841 21.8935 14.3263 29.7961 597902 595593 1.10266e+06 -119850 -146651 190131 
197 1 25.3527 21.7999 10.6999 16.945 806643 -14273.7 644314 107402 19537 -13603.8 
195 1 23.5177 21.688 12.4648 18.3107 496771 713098 524443 -24885.7 -396212 130088 
199 1 27.1322 21.8066 12.6209 15.8096 1.41849e+06 77699.2 1.30608e+06 66477.6 -159705 -388444 
203 1 30.6919 21.7633 12.4518 16.6003 541364 -143737 694591 -292732 289591 -5627.32 
269 1 32.5819 21.6641 14.2224 15.7474 1.04474e+06 355605 1.08029e+06 -195334 -90312.2 193921 
3009 1 36.1464 21.7853 14.2471 16.0466 612141 -64836.4 655351 31631.6 -227400 -41530.4 
207 1 34.467 21.665 12.5169 17.5318 1.04717e+06 472783 687592 -27679.6 -198564 -258905 
209 1 21.7303 25.3637 10.7407 9.75512 320018 1.07345e+06 886976 -105064 -380858 -68172.7 
196 1 21.6676 23.5898 12.501 17.7581 838883 1.1442e+06 1.26981e+06 -49398.8 -142044 329773 
273 1 21.7919 25.547 14.2468 15.7395 376324 429278 695439 -425245 181973 767727 
194 1 23.6259 23.5666 10.7502 0.558646 -641990 -698058 623588 -601822 -35585.5 -178127 
200 1 25.3714 23.5855 12.4948 0.113792 -1795.52 343689 -49440.4 169432 37887.9 -151392 
211 1 23.5428 25.4795 12.3798 0.378208 -92534.9 276874 -96232.6 -250901 -247413 -28797.7 
277 1 25.2947 25.4405 14.3048 0.373927 -23572.7 346124 -406110 -143793 -365945 -32828.1 
258 1 23.5538 23.6111 14.2044 0.536117 -602369 -145712 713429 -14829.9 334918 112365 
198 1 27.1306 23.6012 10.7116 0.320745 -433914 -531304 -264690 -133660 -250480 86095.4 
215 1 27.2054 25.4393 12.5962 0.81492 -177500 -328081 254528 -62675.7 -183164 -499261 
204 1 28.932 23.5805 12.3845 0.568229 43590 -124087 328846 -58752.9 -278071 429697 
219 1 30.6725 25.3767 12.4596 0.477491 17242.9 114862 425585 -328549 -383063 21476.9 
208 1 32.4819 23.3937 12.3869 0.442211 229029 -156113 -134377 -452667 -7920.13 -280414 
266 1 30.745 23.5254 14.2663 0.132331 -309970 -788801 173024 -671221 -63449.6 -313364 
285 1 32.5597 25.2024 14.1778 0.388785 -326121 -144867 30987.7 -45049.3 177633 31500.6 
223 1 34.3538 25.3069 12.4854 0.15159 -187472 112006 57339.2 103676 224355 -42264.6 
270 1 34.3041 23.4488 14.2285 0.22829 183884 -483240 628840 338109 75885.6 -327336 
212 1 21.6017 27.2119 12.4028 12.1074 583406 810913 965922 -149126 -129447 144202 
289 1 21.6547 29.1022 14.21 10.5403 100654 597600 640705 -455129 172447 -47360.9 
229 1 25.2568 29.0212 10.7121 0.690238 -408955 -543813 -256484 -239074 51262.3 51052.6 
216 1 25.3835 27.1326 12.395 0.296548 -241005 -225205 230108 -205596 3077 195907 
227 1 23.4566 28.9009 12.4115 0.350332 -389259 45878.7 -365186 86284 131442 349562 
293 1 25.4307 28.9513 14.2753 0.248163 -244183 -35903.4 -243844 -386349 268752 489393 
274 1 23.4914 27.2645 14.2031 0.272498 -45304.7 -78200.7 303271 -417732 -74080.8 8037.43 
220 1 28.9219 27.1376 12.3366 0.502973 -781697 -258510 140073 49203.6 84353.8 -59322.1 
231 1 27.1629 28.8898 12.4607 0.182773 -287423 -597027 -355064 32630.5 -43557 74916.4 
297 1 28.9193 28.8609 14.2906 0.38439 -555517 246662 -162566 -303730 -109314 14048.6 
278 1 27.2441 27.1721 14.2515 0.428685 -437488 -1.2796e+06 -703099 -364179 -127026 -214322 
224 1 32.5415 27.0682 12.4819 0.219922 31972.1 344748 137678 -96123.6 241495 266108 
235 1 30.7198 28.9911 12.4634 0.296092 115586 553171 718122 -344731 124118 150691 
282 1 30.7715 27.098 14.2605 0.164979 505519 326632 -17643.2 194961 214432 -310616 
2958 1 36.1293 27.0429 12.5451 0.295349 -26470 -231354 110831 -127925 -76107.6 322271 
239 1 34.3551 28.9449 12.4591 0.173046 182605 117823 -200889 -49282.3 465085 -326369 
286 1 34.296 27.1016 14.2793 0.207334 -429178 -155220 -134368 411799 62897.8 -21927.5 
228 1 21.6883 30.7062 12.3601 15.6933 364871 512064 528262 199333 38224.3 149709 
305 1 21.6626 32.4054 14.2924 14.9946 328608 1.26377e+06 1.11236e+06 426719 -39180.2 210870 
232 1 25.3469 30.7154 12.4577 0.129216 314208 -381321 -487744 -55783.3 43290.4 -33390.6 
243 1 23.5194 32.5558 12.5272 0.241277 202199 735431 124364 -291758 -61539.8 430421 
309 1 25.3074 32.5528 14.2792 0.125982 -27823.5 113634 -257425 -25868.1 -32939 -101863 
245 1 25.2455 32.4728 10.7149 0.159215 87295.3 144785 181737 -249068 185329 447116 
290 1 23.4366 30.7154 14.2671 0.273358 -213515 -436811 82314.4 -185841 115994 133283 
236 1 28.8816 30.7563 12.3896 0.219481 299560 181328 561831 45046.4 -53570.1 -158437 
247 1 27.0931 32.553 12.5413 0.225133 -157718 -188435 -132624 -160404 -144020 129645 
294 1 27.1043 30.7357 14.2726 0.0630459 28523.6 -584089 -233083 -336626 -178655 165792 
313 1 28.8642 32.5893 14.2492 0.199596 -558232 -32536.2 -212133 48298.9 9707.59 -15612.2 
298 1 30.7782 30.9241 14.3224 1.02966 80773.6 16269.7 -638395 -23008.2 375171 -6576.51 
253 1 32.5557 32.4457 10.7672 0.80065 340342 103586 328452 197667 -110363 -135852 
240 1 32.468 30.6804 12.5319 0.729451 274877 -32264.2 210906 -35294 108779 282503 
251 1 30.7054 32.5266 12.4729 0.223291 312510 14084.6 770.572 67902.5 449403 341501 
302 1 34.4721 30.7803 14.2034 0.68425 -396347 -470352 -160747 53474.2 -269037 -75069.4 
317 1 32.6766 32.4866 14.3194 0.502841 -423164 -264095 -18368.4 -256393 -144724 -201867 
255 1 34.4361 32.5875 12.4837 0.210737 100623 209505 72245 180524 -321328 196382 
241 1 21.7223 32.6507 10.7344 15.5877 110503 1.01464e+06 1.12628e+06 -499246 -40624.2 198246 
244 1 21.4609 34.4887 12.6412 16.841 1.18705e+06 1.92433e+06 1.78539e+06 -248290 -102550 25444.4 
1499 1 23.4466 36.1426 12.5125 0.122456 276594 141857 130291 9631.5 -326848 -110344 
242 1 23.4303 34.3368 10.7629 0.211518 -128876 -182433 528833 -570556 -241436 32428.2 
248 1 25.2548 34.4028 12.5564 0.181919 -293671 -117762 -217068 -32200.3 -47361.4 219007 
310 1 27.0805 34.3562 14.2779 0.128095 9035.8 -115328 -11789.2 39573.3 -344878 -53258.9 
1577 1 28.9826 36.1378 14.3071 0.27672 236333 544231 645295 -236096 -319393 226946 
1503 1 27.1222 36.1328 12.4778 0.0970622 124030 -145256 -58280.6 190154 95920.9 256568 
252 1 28.8912 34.3449 12.3718 0.357101 366350 54817.4 236482 223762 -37006 468970 
314 1 30.7437 34.2673 14.2668 0.244029 455615 247915 594827 -283239 -167555 -89071.1 
1581 1 32.455 36.11 14.2881 0.525071 623389 459192 630774 47809.1 -342247 152199 
250 1 30.8656 34.3644 10.7106 0.30228 210167 364697 295447 7422.96 -175058 226618 
256 1 32.6428 34.3277 12.4487 0.246403 273290 221960 178886 224287 -327159 -71179.3 
261 1 25.1278 21.7977 14.3894 14.5341 1.19527e+06 69239.4 1.24981e+06 388338 -167736 -140707 
259 1 23.3615 21.9776 16.2663 13.9479 577092 332402 832701 70615.7 -213411 -287558 
325 1 25.2791 21.7204 17.9567 17.3559 673185 199909 1.36425e+06 -133629 -224148 39468 
265 1 29.0924 21.8122 14.3491 14.5027 389378 -129483 474332 -388203 8607.98 -350803 
263 1 27.1278 21.7152 16.1456 17.7865 945874 -56517 996041 -228725 -184888 32376.3 
267 1 30.7954 21.7007 16.1315 16.3471 901116 263801 994377 -480578 -677124 -30534.1 
271 1 34.2344 21.56 16.1249 17.9168 1.62509e+06 970497 1.47368e+06 139692 -196035 -153639 
321 1 21.5321 22.4401 17.9558 27.2707 452193 575677 683278 -118475 187653 -425750 
260 1 21.804 23.9083 15.97 13.0215 -52106.8 -69745.3 519963 -367944 306687 579813 
264 1 25.3724 23.5994 16.1142 0.466587 -273369 -308983 102067 -376792 -65047.5 22418 
275 1 23.627 25.4375 16.2228 0.610337 -524052 339618 488437 -548686 -89012.3 -323554 
281 1 28.9088 25.2409 14.3829 0.679875 -771158 -189778 -573236 43388 -173991 -248716 
262 1 27.141 23.4713 14.3625 0.438351 72439.5 -726688 -767344 -160469 -256530 -730488 
279 1 27.036 25.306 15.9505 0.873789 -759916 -610728 -277954 -402539 -114088 -326939 
268 1 28.8458 23.4801 16.1131 0.242945 291558 -566149 -442025 -248851 -368331 27460.6 
326 1 26.9679 23.5004 17.9479 0.601869 -236378 -424624 -137600 64908.7 -220746 70135.5 
345 1 28.8174 25.2854 17.9427 0.309893 395327 285773 458756 204090 283617 -236535 
283 1 30.7618 25.2549 16.064 0.113907 -140010 -416186 -25767.4 200806 -355253 -98176.3 
272 1 32.4477 23.4636 16.1452 0.36288 -313844 -336101 162549 -151764 -166201 4313.61 
330 1 30.7108 23.553 17.9262 0.26577 473040 -288894 -171345 248066 230410 221313 
349 1 32.63 25.3024 17.8808 0.491392 36055.7 -476059 -247993 116725 -32623.9 -260718 
287 1 34.3582 25.2244 16.0511 0.146171 -101595 -55503.2 -135538 -52960.2 356789 106357 
334 1 34.2911 23.4539 17.8522 0.401468 -78717.5 -406460 148007 439837 96497.3 258538 
276 1 21.7229 27.3302 16.1414 16.2221 783498 1.4679e+06 1.07855e+06 -202096 -4416.97 -607994 
353 1 21.6802 28.9012 17.9489 16.9693 238423 431168 355691 68304.4 -408443 -633809 
280 1 25.337 27.2428 16.0438 0.279172 -61796.9 -586807 14180.1 74198.3 -272456 135795 
291 1 23.6413 28.9974 16.0261 0.777223 -78384.2 -197682 461279 -86621.7 6284.3 -17030.3 
295 1 27.1844 28.9905 16.0387 0.347501 159056 122806 25041.6 -221114 26448.2 218770 
284 1 28.9549 27.0337 16.0572 0.291834 -103127 50626.4 -241718 -88610.5 75932.3 21552.4 
342 1 27.1143 27.0903 17.8032 0.597516 -140310 137442 844742 -83415.1 -103420 608.607 
346 1 30.75 26.9967 17.9222 0.213037 -80572 142594 441217 -295435 -150526 -548553 
299 1 30.6874 28.9417 15.9996 0.599864 373035 692903 580102 -57757.1 -396728 -162567 
288 1 32.5422 26.9863 16.0587 0.323931 120736 117005 -69982.5 -241196 100002 183547 
365 1 32.3606 28.8082 17.9233 0.703147 -157956 457997 115132 -289742 350337 -33627.5 
3030 1 36.086 27.0141 16.0779 0.401567 -101586 -182815 -79955.5 -85518 244955 -100981 
301 1 32.6893 28.9287 14.3369 0.752889 236353 182176 -14410.8 238056 30267.5 65261.3 
350 1 34.3877 27.0422 17.9212 0.251244 -5030.26 -130026 287747 -22067 120743 146360 
303 1 34.2903 28.9085 16.1953 0.472864 100493 -78143.6 287181 -60906.8 -393023 -208071 
292 1 21.6468 30.6978 16.062 17.6851 386541 860211 598945 -217563 153926 -17596.9 
369 1 21.6222 32.4982 17.9622 19.2496 505985 1.00105e+06 1.43594e+06 -79103.7 58007.1 842.325 
307 1 23.4802 32.403 16.0937 0.475997 16911.4 193648 540408 -99757.7 -219.204 -137122 
296 1 25.3295 30.7664 16.2112 0.36041 -116082 -124676 695848 -241537 6554.64 53786.4 
377 1 28.9124 32.485 17.9397 0.109358 411564 406898 514962 69541.4 -76655.4 -164769 
300 1 28.9679 30.7813 16.085 0.209617 23075.3 22630.4 594489 -43482.4 19633.5 -206214 
311 1 27.128 32.4869 16.0444 0.294241 -59405 -112082 214532 -445645 -65946.2 -321717 
315 1 30.7401 32.5349 16.0926 0.111497 59362.8 -344679 -367323 -334452 -50985.8 -404461 
304 1 32.5636 30.7106 16.1155 0.196114 4024.36 -154741 -357656 236339 -705425 -266501 
381 1 32.5169 32.4571 17.8877 0.163086 -523224 -828517 335729 205295 -282181 -222328 
3048 1 36.0017 30.6892 16.1014 0.619903 130086 88851.5 168566 43112.9 -113329 -173894 
319 1 34.3961 32.5783 16.0478 0.372134 -463081 -381655 -502867 296685 -420828 94689.4 
366 1 34.2229 30.7517 17.8494 0.39716 -439574 104286 -400572 305382 -437994 -327275 
3135 1 36.0846 32.4765 17.9315 0.12651 159264 -76828.3 -34037.5 47021.3 -157267 495503 
308 1 21.6608 34.2862 16.17 16.8541 573656 1.37729e+06 1.33133e+06 -43870 -77666.1 76289.4 
370 1 23.4118 34.2253 17.9669 0.366419 185645 422075 310217 -102473 81424.7 -350386 
312 1 25.1534 34.322 16.0327 0.567683 265610 221817 -65315 -47472.9 -434202 -366348 