ITEM: TIMESTEP
8400000
ITEM: NUMBER OF ATOMS
5780
ITEM: BOX BOUNDS pp pp pp
2.1072884714127800e+00 7.0192711528602771e+01
2.1072884714127800e+00 7.0192711528602771e+01
-2.4591820608924189e+00 7.4759182060907960e+01
ITEM: ATOMS id type x y z c_csym c_2[1] c_2[2] c_2[3] c_2[4] c_2[5] c_2[6] 
3 1 23.9801 22.3221 -0.474662 15.1743 944620 485691 1.4891e+06 -459582 372759 -55675.2 
4 1 22.1258 24.0588 -0.65564 21.2279 394122 304462 294029 -266807 235002 455657 
65 1 22.2053 22.755 1.34662 23.1951 342841 648185 762868 -270909 19319.2 213312 
2 1 23.946 23.9987 -2.44509 0.372908 -910580 -1.01657e+06 701142 -958703 -56103 104957 
7 1 27.3599 22.0517 -0.710061 14.2345 424755 -233965 1.22403e+06 143563 -145144 316264 
8 1 25.837 23.8809 -0.494828 0.351949 -452705 -798790 552928 -296258 292630 -427939 
5 1 25.6247 22.1692 -2.40727 14.8708 354206 -43410.8 346003 -160644 -64691.9 57970.5 
11 1 30.978 21.9837 -0.363144 16.4029 1.13557e+06 522346 1.37775e+06 65291.9 153868 -232460 
12 1 29.1587 23.7003 -0.526848 0.505811 259542 -325428 668482 -130118 133794 -292208 
9 1 29.2703 21.9782 -2.36761 15.5846 1.20603e+06 102837 1.26656e+06 -214267 231384 -112114 
16 1 32.7106 23.8036 -0.697662 0.555965 -82880.4 -364677 1.27023e+06 -111662 -154744 -137444 
15 1 34.4605 22.1181 -0.680516 15.5652 1.17501e+06 265300 1.47595e+06 220369 46828.6 172693 
78 1 34.3982 23.8137 1.36939 0.213755 222065 -498605 616591 -249093 118838 182924 
19 1 23.9809 25.6498 -0.523649 0.189858 -143097 -52092.9 170404 -402794 68324.1 -324631 
20 1 22.0369 27.2431 -0.451198 16.2188 589258 1.44657e+06 1.14894e+06 87020.7 -201733 66977.7 
82 1 23.8693 27.263 1.36889 0.454646 -66894.5 251271 359738 -340621 249062 -194196 
18 1 23.9343 27.2973 -2.4328 0.218605 -505692 -809547 1.07787e+06 53886.1 101912 189034 
81 1 22.2047 25.5189 1.38506 14.3752 286126 773910 911880 -350364 112762 -242343 
23 1 27.5325 25.6117 -0.497354 0.215357 -28797 -13114.7 425051 -223491 143542 205761 
24 1 25.6989 27.3803 -0.31268 0.978804 -152608 305648 379278 -87103.5 111659 311834 
21 1 25.7578 25.6381 -2.44472 0.23292 -352344 -28086.1 908349 -482150 21966.3 -61296.3 
86 1 27.5295 27.4504 1.37279 0.240709 103093 243029 466669 -775076 -401635 -150671 
22 1 27.3794 27.3853 -2.31363 0.926916 222187 -144835 794676 -286346 -259912 -309615 
27 1 30.9144 25.5345 -0.679968 0.444723 192252 111446 677914 -170929 -52989.2 -160384 
28 1 29.2559 27.4698 -0.594069 0.387425 -282499 84509.9 417742 -239981 -41866.7 -143179 
89 1 29.3117 25.5237 1.34035 0.338152 -402051 -73733.8 426653 -111029 89653.2 -206300 
90 1 30.8936 27.3844 1.35403 0.153325 -1.72351e+06 -932506 61445.8 -340932 371742 82462.1 
32 1 32.6221 27.269 -0.547126 0.350956 248379 -115330 596006 -90023.7 -43666.5 108447 
31 1 34.3477 25.5186 -0.606198 0.261629 -414639 -229193 1.29594e+06 -77522.8 -197474 114245 
93 1 32.6002 25.6444 1.38766 0.44459 23334.4 71428.1 479781 -21483 82642.4 171177 
94 1 34.4459 27.4146 1.35594 0.374633 433606 -61720.1 63436.9 168292 29320.3 -29037.2 
2742 1 36.1207 27.2657 -0.627207 0.435777 283225 342590 721104 252523 80989.8 386372 
35 1 23.8379 29.0619 -0.457689 0.259865 -842050 -70900.9 45868.9 -216379 60481.7 -195176 
36 1 22.028 30.7726 -0.668342 15.7619 506470 803159 705063 194344 95385.5 -112102 
97 1 22.1374 29.2087 1.35656 14.1146 -108756 943272 970189 -641938 160848 -260025 
98 1 23.7932 30.8728 1.27667 0.377735 -1.52149e+06 -556551 230416 -190950 725061 -292821 
33 1 22.2757 29.0087 -2.38422 14.2466 -285621 638618 882724 206950 67829.5 -177525 
39 1 27.492 29.2368 -0.61454 0.825977 683611 215848 887489 27605 -157281 5256.49 
40 1 25.4826 30.8122 -0.465574 0.891923 177099 176850 610280 -153087 431547 -112176 
37 1 25.5179 29.1025 -2.39765 0.406587 446329 188360 855574 -161129 -168233 -425789 
43 1 30.9275 29.2056 -0.602144 0.352646 -330000 -67976.4 546609 -315328 -32378.1 128975 
44 1 29.2327 30.9859 -0.4432 0.417627 -8276.3 -62720.6 945949 -244459 219559 115497 
105 1 29.2256 29.1334 1.39423 0.209006 -164576 -655441 372139 -80603.3 32998.5 173544 
47 1 34.4117 29.1193 -0.465607 0.334105 339198 97342.5 405031 -150619 -43774.3 167690 
48 1 32.6376 30.99 -0.463044 0.357297 393345 -83017.8 393612 -93045.4 146850 -6431.16 
109 1 32.5149 29.0345 1.29767 1.34238 -552918 -474453 516803 -557028 -84639.6 185860 
2760 1 36.0703 30.9313 -0.524254 0.363238 -9839.53 -792634 415343 -235241 127073 -304559 
46 1 34.2924 30.888 -2.44284 0.309467 -287410 -173023 966424 -367834 -21094.2 95875.2 
45 1 32.7439 29.1383 -2.35685 0.902837 -170565 46681.8 661023 -506916 400209 -46071.3 
1283 1 23.8899 36.139 -0.48274 0.29068 67124.1 621439 823407 -27864.2 -181836 -64036.5 
51 1 23.8263 32.6532 -0.687314 0.581745 -666825 -300123 521458 459683 -21592.8 54583.1 
52 1 22.0935 34.2749 -0.551078 16.0925 172882 973347 1.23078e+06 511954 201570 125109 
113 1 21.9797 32.5435 1.20173 16.8775 605510 1.05497e+06 1.47568e+06 131170 228220 364169 
49 1 22.0243 32.5869 -2.43087 17.6842 43735.5 592150 923252 171382 -227017 -388322 
1287 1 27.2856 36.0818 -0.502992 0.581579 434723 322511 650284 -267588 -338379 -15722.5 
55 1 27.3403 32.6781 -0.489642 0.159057 192393 301592 737240 348981 151572 -26544.9 
56 1 25.592 34.3386 -0.486784 0.295439 -453360 -738545 551486 -54830.4 -277359 38104.3 
118 1 27.2699 34.4316 1.38621 0.219984 290597 42532.3 107740 -206419 -81767.2 -219520 
1285 1 25.592 36.103 -2.40327 0.622603 -304082 -115027 700302 -146836 190668 -92157.9 
59 1 30.9 32.751 -0.463871 0.243082 -709302 -807898 228966 20212.1 172318 103697 
60 1 29.1443 34.3913 -0.577329 0.246841 -131509 -144442 748202 255193 167197 -122981 
58 1 30.9749 34.4085 -2.32771 0.711148 -218846 -193067 -425935 354025 -169311 186725 
122 1 31.0582 34.41 1.38645 0.487437 -139970 -46218 303650 9562.99 184172 -274161 
57 1 29.0855 32.6274 -2.44063 0.30505 -199675 -301163 556202 247620 48280.4 -61788.8 
2847 1 36.1217 32.5475 1.33741 0.55816 -625708 -79855.9 -423707 64805.4 91509.8 -197862 
63 1 34.441 32.7498 -0.445514 0.595868 -590054 -273156 76792.1 -178264 -89265.8 26426.7 
64 1 32.6075 34.5446 -0.58102 0.587219 -992959 -245328 -87055.9 -130279 -148066 -365027 
62 1 34.3679 34.3348 -2.4547 0.4937 -370962 -183278 402705 -23298.8 -387419 19047.6 
61 1 32.6322 32.6512 -2.37703 0.279397 -342021 -889547 750651 149400 187363 198053 
126 1 34.512 34.4683 1.38811 0.339467 139445 -245853 381684 216977 -103275 -204869 
2775 1 36.0887 32.6808 -2.41626 0.244936 -157920 -214400 316699 391059 107761 -234372 
66 1 24.2335 23.9787 1.44477 1.75798 -1.01333e+06 -1.21178e+06 212811 -1.52281e+06 59063.8 29327.2 
67 1 23.9813 22.4257 3.34079 13.1382 610349 336479 819420 30926.4 -251147 122024 
68 1 22.0794 23.9576 3.51627 15.8861 526875 487021 1.02017e+06 351912 -135191 -73966 
70 1 27.5464 23.8031 1.43277 0.177476 -160668 -126098 321907 -135320 314066 154528 
69 1 25.8505 22.0046 1.51325 17.7851 1.37136e+06 727217 1.90496e+06 -260000 -109286 29464.6 
71 1 27.5944 22.0168 3.31445 17.2887 853704 145798 1.01113e+06 -442656 131031 -40871.4 
72 1 25.9627 24.0317 3.318 1.02833 -276151 -268210 -84647.2 -150960 29149.5 521206 
133 1 25.685 22.2784 5.09979 13.7903 49173 -627575 148103 -74198.8 -246707 -243889 
73 1 29.3236 22.0233 1.51168 16.2319 672854 334969 855125 -185690 313049 -8551.07 
74 1 30.9835 23.8086 1.41934 0.189225 139489 -860598 839392 -228918 -196135 -334074 
75 1 30.957 22.0534 3.34355 15.5895 1.03466e+06 256525 945489 -133878 -228537 -163432 
76 1 29.1879 23.8148 3.42028 0.712477 -607890 -1.13744e+06 499584 -246261 197775 -339001 
138 1 31.1243 23.7521 5.24781 0.772451 135785 -441424 474833 -421426 43469.9 -213538 
77 1 32.8171 21.9811 1.43829 17.8595 926163 436836 1.22765e+06 -323868 -594747 -172726 
80 1 32.7135 23.7777 3.33914 0.108931 -511234 -541664 392724 221281 325069 -218038 
79 1 34.4783 22.0666 3.17646 16.1592 412437 -145564 797510 -209647 -416823 93346.5 
142 1 34.5204 23.69 5.2391 0.276322 -27917.2 -272333 967587 -523948 -100988 -171604 
83 1 24.0591 25.5833 3.37787 0.282562 -235880 -137800 403073 63823.7 35840 146970 
84 1 22.104 27.0989 3.37302 14.6401 519115 1.12822e+06 1.36468e+06 57895.9 67843.5 -314146 
85 1 25.8086 25.6127 1.40212 0.252609 -636482 -1.37147e+06 -79343.6 -858674 195317 520348 
87 1 27.7209 25.7041 3.26447 0.995445 -806702 -681701 259533 -521125 -195147 -32932.3 
88 1 25.6921 27.3451 3.36002 0.228453 229608 -55588.1 619902 -567630 -31936.1 -34486 
150 1 27.5864 27.431 5.19158 0.38814 -419848 -763296 325318 -430537 -422717 359804 
91 1 30.9648 25.4412 3.31713 0.620887 -775488 -349559 -143368 71754 225971 -155035 
92 1 29.3607 27.3976 3.1981 0.677677 -1.00441e+06 -868522 -305027 -737055 123206 303016 
153 1 29.2802 25.6335 5.16032 0.283555 -245699 -135252 90931.8 -318429 -253481 -256363 
154 1 30.9163 27.3837 5.15916 0.285318 -150975 -400946 473473 -924002 -20576.9 235462 
2883 1 36.1072 25.5775 5.14113 0.67252 -1920.87 49113.4 871172 -225378 108168 30182.6 
95 1 34.397 25.6079 3.20121 0.300562 231583 577105 748742 -129162 -120444 -99656.1 
96 1 32.5925 27.3975 3.24932 0.387229 198923 252876 484360 22888.1 142894 -67981.6 
157 1 32.6696 25.5168 5.22192 0.159182 -77329.3 195591 609888 -713591 43538.6 -287700 
158 1 34.4102 27.3801 5.24173 0.200516 462651 204098 1.32354e+06 -25287.4 42657.8 123216 
99 1 23.7654 28.9936 3.31619 0.622676 -209583 373265 421213 256764 206594 -443063 
100 1 22.1944 30.8881 3.2036 14.2059 -702485 106076 566497 -562776 -182079 -616061 
162 1 23.8713 30.734 5.06236 0.802022 -63229.1 -110030 -65816.1 209031 -77749.6 188712 
161 1 22.0519 28.8752 5.14538 14.1441 592383 1.22186e+06 956844 165322 326347 -424974 
101 1 25.5638 29.2466 1.53367 1.13518 615023 -32229.9 142544 155525 -128828 -368899 
102 1 27.4451 30.9639 1.44584 0.278824 45191.7 460264 323645 -156791 -81071.2 -20947.8 
103 1 27.5026 29.0708 3.33756 0.587445 -32204.5 -30090.9 228387 -143490 -33707.6 175120 
104 1 25.6623 30.8142 3.30858 0.314911 189752 -304846 -282278 123882 331731 -506453 
165 1 25.6593 29.0806 5.19784 0.359126 -132513 -56152.7 398993 185755 196832 55784.8 
166 1 27.3691 30.992 5.23998 0.217128 -228190 -153082 224153 471848 328255 463674 
106 1 30.9693 30.9828 1.54925 0.656033 -228976 -458492 326981 -171141 206201 -97026 
107 1 30.9078 29.2382 3.39549 0.527199 -75598.3 -329543 300907 -163479 -175938 246488 
108 1 29.0882 30.9772 3.26676 0.511021 -662192 -530426 -58135 477071 -208475 296349 
170 1 30.8508 31.0355 5.2567 0.542417 -211054 -211404 634900 -301759 -103526 128599 
110 1 34.3878 30.7467 1.44907 0.707041 67095.1 -105951 -29478.3 24634 164840 -95697 
111 1 34.5028 28.9961 3.18617 0.954392 284316 -316355 276262 111690 -73410.1 26515.7 
112 1 32.813 30.9042 3.40643 0.89134 -621014 164914 408444 -428315 -301071 327711 
174 1 34.432 30.8845 5.19713 0.271468 354640 752429 681196 140624 -563933 251550 
2901 1 36.112 29.1291 5.21276 0.301521 183887 65991.6 798946 -286646 -71749.7 274124 
114 1 23.8034 34.3576 1.46186 0.350438 -609565 343304 596153 409742 150500 147556 
115 1 23.8472 32.5009 3.35722 0.565302 -1.19778e+06 -1.0595e+06 360351 -485828 176135 340633 
116 1 22.1433 34.2669 3.23964 14.7784 141508 1.25191e+06 752398 229339 264242 574520 
178 1 23.6839 34.3278 5.25076 0.552484 -127260 117909 706597 -108189 -235131 54355.5 
177 1 21.9984 32.5565 5.07406 18.9926 271862 1.12339e+06 1.07878e+06 -327777 24261.1 -124.692 
117 1 25.5377 32.6493 1.4288 0.225097 60740 -198284 517783 25196.8 201089 -54451.2 
1359 1 27.2687 36.0642 3.2749 0.624328 -82196.4 29845.9 870147 220171 27314.5 -343407 
1429 1 25.5599 36.0368 5.20601 0.47828 160453 434007 553092 56854.1 -269129 -62267.3 
119 1 27.3507 32.647 3.35557 0.173148 -3928.4 -117965 272098 468758 -54345 -42524.4 
120 1 25.5055 34.3531 3.29236 0.210146 29643.7 -242497 155270 -270086 -22341.1 -283505 
181 1 25.5519 32.6239 5.22605 0.194664 -213901 -404640 -94722.2 260030 -68884.1 354704 
121 1 29.2031 32.7229 1.46075 0.208869 146979 -112080 486310 -189939 169740 90023.4 
123 1 31.0311 32.6593 3.34703 0.442928 68669.7 -57650.3 -594006 -27965.7 5311.47 -307366 
124 1 29.2208 34.5583 3.26056 0.800271 14873 63923.4 334847 -247740 -364003 147571 
185 1 29.1566 32.7731 5.15509 0.489604 -636119 -450293 1.06566e+06 81972.7 -64964.5 -76791.8 
186 1 30.8467 34.4387 5.16323 0.531127 -580196 -583002 614197 123140 -324606 44840.6 
125 1 32.7062 32.6391 1.45455 0.187073 -462587 -330079 286677 23910.5 130958 -227107 
2850 1 36.1026 34.4238 3.31454 0.229539 -122615 188629 396654 -161801 -80097.5 98225.2 
128 1 32.762 34.5152 3.27761 0.300707 181797 509458 442689 -128599 -358698 76962.2 
127 1 34.4928 32.5747 3.27173 0.485645 -221604 -518662 673789 -610136 -65417.2 118723 
190 1 34.3486 34.4507 5.20103 0.30021 -695.443 665118 725132 -206387 -73644.1 8716 
130 1 24.0827 24.0523 5.27702 0.682742 -1.05539e+06 -1.01004e+06 258153 -24331.5 -347668 129241 
129 1 22.3579 22.4348 5.40228 26.7144 404729 51097.2 453675 -305752 -148038 -112751 
131 1 24.1589 22.0809 7.09418 15.4618 703905 429232 1.18564e+06 -515244 -54436.4 -17470.2 
132 1 22.2878 23.8905 7.29412 16.759 297311 -62668.4 363280 -463056 -291554 -75533.1 
193 1 22.4293 22.227 9.06269 28.5393 557333 250243 1.13278e+06 -305767 -149219 192390 
194 1 24.1402 23.8753 8.99799 0.610615 -176227 -466340 593924 -801711 -278230 398945 
134 1 27.5915 23.7273 5.28037 0.71642 -770252 178103 -318818 -545486 149072 -48153.8 
135 1 27.3877 21.9433 7.09338 15.6035 890444 101570 719587 98916.9 -332795 185653 
136 1 25.823 23.8207 6.98797 1.18502 -562837 -492166 -381053 -448778 -382015 -189902 
198 1 27.3668 23.9228 8.90739 0.800507 -15537 -130829 155256 -26118.7 -120699 273750 
197 1 25.8031 21.9802 9.07476 16.4008 1.01187e+06 512628 947769 -72134 254781 -44834.8 
137 1 29.3547 21.8559 5.32732 16.1887 1.35028e+06 860999 1.42127e+06 13648.9 -117107 -125005 
139 1 30.8491 21.8719 7.29333 15.9791 1.04329e+06 326933 1.02877e+06 48072.7 -291918 -401238 
140 1 29.1541 23.7358 7.13966 0.329592 -19307.7 -168604 -49724.6 124196 -574862 -58345.8 
202 1 30.9073 23.7557 8.90888 0.532382 66031.9 -362392 -568743 462484 402284 -143198 
201 1 28.9693 22.02 8.94119 12.9735 721702 247791 350272 197022 114355 220565 
141 1 32.8546 21.9926 5.31926 15.169 1.09644e+06 -10518.6 1.54963e+06 -210201 -315545 -151337 
144 1 32.677 23.6322 7.25264 0.777033 228438 445352 181028 53270.2 -33452.9 48127.3 
143 1 34.5203 21.8367 7.15436 18.0312 1.24297e+06 427436 1.3595e+06 -202691 -337539 -102816 
205 1 32.6516 21.9601 9.12078 17.558 734165 182086 939182 -101251 122090 335033 
206 1 34.4785 23.6248 8.99065 0.583059 -305220 -349057 1.02249e+06 -683705 -490783 3920.98 
145 1 22.1766 25.6191 5.43089 15.3128 16237.4 960482 811106 -87192.7 -181879 -53691.3 
146 1 23.982 27.2787 5.33019 0.369819 -242251 218916 916467 -212397 78258.6 147806 
147 1 23.9022 25.6865 7.31782 0.850079 80126.2 2167.66 276961 -363391 -426897 232824 
148 1 22.0854 27.4029 7.21737 15.3494 581424 1.4148e+06 1.19537e+06 173931 -100871 -135255 
210 1 23.9144 27.5489 9.03322 0.655167 -287990 -234083 411607 132944 26443.7 -128850 
149 1 25.9141 25.7221 5.28279 0.684588 -149759 -245746 281808 -463870 -606621 262576 
151 1 27.5085 25.6485 7.13957 0.172214 -485764 -494001 -58495.7 -187164 -857610 370102 
152 1 25.8037 27.453 7.22008 0.395949 137992 -347104 363414 108555 -192848 -25984.8 
214 1 27.5606 27.4916 9.03744 0.448801 -49986.3 25621.4 417054 -89975.9 97432.2 -51056.5 
155 1 30.9976 25.5678 7.062 0.369626 124253 213456 429577 -612282 364692 -47078.8 
156 1 29.1424 27.4669 7.10689 0.313039 -257059 -39944.8 103505 -1.02293e+06 -96120.5 148843 
218 1 30.9526 27.364 9.08051 0.310957 -209927 -256339 173444 -440182 204673 149760 
217 1 29.2214 25.6108 8.89227 0.463649 -436898 -89540.9 129746 -34857.3 -300904 231172 
2955 1 36.0963 25.3157 9.04804 0.911736 125054 150015 961779 -383027 -20353.2 8101.93 
159 1 34.4408 25.5413 7.09723 0.329777 762392 965484 567859 142564 43098.8 6075.73 
160 1 32.6372 27.2594 7.25942 0.473145 -201131 -189146 612460 -112667 353701 -37047.3 
163 1 24.0295 29.2041 7.14546 0.986655 196327 105876 440398 364099 49501.5 121956 
164 1 22.0068 30.5599 6.94979 13.3261 448012 1.41601e+06 1.52713e+06 244245 -46622.4 -209370 
226 1 23.7692 30.9084 8.9597 0.479697 -367867 -70692.9 969089 -238334 59858.8 -104958 
167 1 27.3215 29.3645 7.18267 1.06006 42059.5 -238691 391438 60458.9 244321 185812 
168 1 25.6534 31.0507 7.05644 0.870842 -955210 -944350 79373.8 21405.9 173393 253995 
229 1 25.7213 29.194 9.08652 0.308883 -165423 186321 320111 -391466 -74161.2 -180842 
230 1 27.3848 31.0419 9.07274 0.227348 241688 -100666 373861 -142379 56684.2 42579.9 
169 1 29.1407 29.2998 5.26492 0.545389 -148149 -117635 776254 -493225 -55039.5 261666 
171 1 30.8963 29.0579 7.23506 0.565035 -962727 -393100 289364 -863551 239878 208837 
172 1 29.2531 31.0594 7.25964 0.598074 190724 215163 729783 -206976 104843 -129576 
233 1 29.2736 29.2107 9.08393 0.30707 79875.7 180671 617590 -279257 277043 -99318.8 
2973 1 36.0535 29.1701 9.10409 0.388319 -857632 -867529 101567 -534985 -116707 -183677 
173 1 32.5816 29.1044 5.29698 0.451176 331833 56398.3 748545 -376033 -213355 -232018 
2904 1 36.1115 30.9501 7.22246 0.204801 -340131 -56066.3 332431 -232822 8330.55 80425.1 
175 1 34.4305 29.1348 7.2205 0.196063 205588 476297 711187 95679.5 -217110 -89010.5 
176 1 32.524 30.7976 7.15536 1.05562 296369 36438.9 660541 -476610 -42776.1 24332.4 
238 1 34.3808 30.9761 9.08442 0.211075 124861 -301995 584605 188030 204238 105427 
237 1 32.5985 29.1468 9.10047 0.287684 -68712.3 118634 -185314 -549114 431090 119327 
1427 1 23.7818 36.0827 7.16249 0.272015 -323533 231724 820910 -39614.9 -429202 -164272 
179 1 23.6373 32.5364 7.01799 0.695679 69274.4 556179 565708 -145388 64195.7 405489 
180 1 21.8612 34.5103 7.07471 17.5998 808705 2.03961e+06 1.9559e+06 -265113 87707.4 99710.2 
242 1 23.6431 34.1856 9.06345 0.878319 13500.8 654091 1.04801e+06 -59792.1 7252.83 145828 
241 1 21.9284 32.4386 8.89526 15.5109 51741.2 1.46394e+06 2.01939e+06 148518 225165 80826.1 
182 1 27.3466 34.3626 5.30608 0.270163 -159913 -227678 812363 395983 -195801 -118305 
183 1 27.3845 32.6848 7.2495 0.37576 -314063 -625881 321929 -162390 -98326.9 225051 
184 1 25.4464 34.2466 7.18438 0.41579 7925.58 -18581.3 368697 188417 -181632 -33704 
246 1 27.1504 34.4037 9.08359 0.503182 45022.2 -205565 207408 249789 87643.5 -109072 
1501 1 25.4089 36.078 9.06501 0.226432 -371290 -62905.1 216928 364627 -211968 228194 
245 1 25.472 32.5654 9.06036 0.311224 -562265 -847440 307048 -75729.5 242408 42501.7 
188 1 29.0843 34.5472 7.16551 0.306449 219199 124092 540405 9471.63 -240785 106803 
187 1 30.9033 32.8489 7.28533 0.521733 -92173.6 -325444 278067 -542114 321550 -65123.7 
250 1 30.9449 34.5167 9.12249 0.21312 -526084 -462774 95801.4 46600.9 -186148 -465947 
2991 1 36.0537 32.7984 9.00121 0.785653 158249 -79658.7 700988 -486858 34525.4 -104822 
2922 1 36.1068 34.4691 7.14912 0.207163 359267 -285074 363396 251036 107014 315302 
189 1 32.5377 32.8024 5.32326 0.89769 -520243 -132823 481160 -185164 -529185 -133314 
191 1 34.2441 32.6556 7.20471 0.603436 277389 512982 681375 310816 -331827 279180 
192 1 32.6478 34.5434 7.17201 0.177329 -404656 -715873 453316 -30741.1 85038.8 -35079.6 
195 1 24.1565 22.0731 10.8795 16.9775 375876 452465 681360 -134406 150939 35967.6 
196 1 22.3983 23.9329 10.9034 15.5837 398455 368421 956479 -283528 -107219 336076 
257 1 22.4576 22.1903 12.7246 28.0649 1.00397e+06 532470 1.27244e+06 -115670 299837 -267219 
258 1 24.1602 23.942 12.7874 0.500932 -488840 -261525 417505 -853454 482786 -290409 
199 1 27.4917 22.0129 10.9592 17.6056 954035 565618 820876 -96431.2 394423 -230181 
200 1 25.7914 23.952 10.9784 0.383232 -29016.3 -138619 -234147 -313636 131325 -181834 
262 1 27.5418 23.8416 12.7705 0.465914 -111724 -327555 247779 -16016 -341471 -448372 
261 1 25.8001 21.9694 12.7648 15.4608 1.08021e+06 809460 786496 -55376.4 368586 112728 
203 1 30.9025 22.1624 10.8176 14.1624 669406 64853.6 1.05719e+06 1131.42 299596 104377 
204 1 29.148 23.8797 10.7752 0.654327 -810980 -799351 863887 -254259 285427 -75043.2 
265 1 29.1735 21.9871 12.9587 16.2493 1.42666e+06 160853 1.56319e+06 -45811.1 -210916 -505104 
266 1 30.9047 23.7075 12.8843 0.233119 443292 -463575 623741 173794 142436 -95115.8 
2940 1 36.0914 23.5843 10.9948 0.602469 242485 -98259.5 542452 -125143 171418 41410.5 
208 1 32.6844 23.8189 11.0411 0.445392 -374160 -601710 1.29081e+06 129952 -13035.5 170193 
207 1 34.3319 21.9415 11.064 16.4386 757575 78588.6 1.2631e+06 -335390 227478 40263.4 
269 1 32.5782 21.8875 12.8159 17.2996 1.29281e+06 602828 1.31521e+06 312183 519282 62204.7 
209 1 22.1432 25.6516 9.18897 18.4079 776893 1.21871e+06 757656 -124944 3391.07 93592.1 
211 1 24.0067 25.7644 10.9914 0.29573 -1.12369e+06 -340600 559704 -306773 75483.9 215560 
212 1 22.2008 27.3652 11.0198 16.8163 -91419.8 307354 1.11997e+06 -146814 54539.5 -143807 
273 1 22.2408 25.6284 12.9796 16.4291 173367 1.25352e+06 1.36339e+06 -358992 -243782 -66780 
213 1 25.6557 25.7835 9.15151 0.867383 -97542.4 -79070.3 252102 -56686 -122904 169797 
215 1 27.5386 25.694 10.8923 0.327082 -238657 -129605 367716 -157199 22325.2 23509.7 
216 1 25.6759 27.4846 11.0214 0.181987 62698.6 -549132 544160 -759557 -179055 -220560 
277 1 25.8131 25.6237 12.7874 0.385669 -799961 -652922 228506 -855155 13147.6 -214324 
278 1 27.5286 27.3197 12.9302 0.258683 322563 153426 718350 -344088 23932.6 -19984.1 
219 1 30.93 25.369 10.847 1.49048 -673488 -229927 913091 -17587.2 132026 -63927.7 
220 1 29.3184 27.3939 11.0876 0.723416 324737 185018 424197 -428070 -21246.5 -102000 
281 1 29.2504 25.5366 12.854 0.181015 -751279 -514443 637910 -297860 70697.6 45742.9 
282 1 30.955 27.2303 12.9571 0.213637 -739696 -24584.4 746676 -76055 -164846 23975.4 
2958 1 36.128 27.2443 11.0133 0.156815 -418145 93034.1 239574 -364516 103665 229154 
222 1 34.5246 27.2521 9.12557 0.55213 -108206 -212816 631333 -893635 -226563 33105.3 
221 1 32.8542 25.5788 9.12865 1.00536 314950 150544 365505 -419540 134347 245312 
223 1 34.4132 25.5482 11.1132 0.449014 -394462 -64506.1 359688 -627583 -271276 193256 
224 1 32.6434 27.3304 11.0085 0.293687 498618 279443 741011 368036 -69939.9 -189174 
286 1 34.5601 27.3482 12.9245 0.697628 87854.9 -379147 157680 817.102 140838 -167783 
225 1 22.0283 29.1344 9.13186 15.0162 344011 1.21294e+06 1.384e+06 24327.3 -199331 -79732.9 
227 1 23.7699 29.1532 11.0187 0.198995 -339230 25659.3 1.03369e+06 -216808 -147267 -297299 
228 1 22.0676 30.8951 11.0157 14.9762 57200.4 961439 1.73463e+06 -200762 -50420.1 -30657.8 
289 1 22.0053 29.0606 12.9463 18.9754 594189 1.38214e+06 1.49705e+06 -90945.8 82873.5 -448074 
231 1 27.4109 29.1744 11.0029 0.145372 303594 390879 822993 -525899 -31346.6 -306211 
232 1 25.5531 30.9475 11.0321 0.195161 729124 232302 689857 345729 107520 -59178.6 
294 1 27.4503 30.8104 12.955 0.381821 21630.3 87621 383725 -416063 131257 -218232 
293 1 25.6331 29.171 12.9048 0.203301 243218 167208 722502 -371035 97010.7 -284962 
234 1 30.9634 31.0806 9.14244 0.513862 -505296 -252562 327879 -374143 -184931 292749 
235 1 31.0446 29.1936 10.9213 0.616046 -876104 -549401 105278 -503090 318800 -137246 
236 1 29.1782 30.966 11.0623 0.110808 414581 533455 947807 -108214 75453.3 5199.26 
298 1 30.9126 30.8838 12.9796 0.135089 -77928.9 111565 807380 -638642 115395 109647 
297 1 29.3348 29.1061 12.9209 0.420739 44976 -362577 658888 -315084 -66960.4 -223185 
301 1 32.6532 29.0532 12.9534 0.151552 168842 355981 588142 -224182 -192771 -210024 
302 1 34.4392 30.7856 12.8363 0.569642 104312 67519.6 323421 -108987 -75423.7 -77785 
239 1 34.4208 29.1351 11.0115 0.133949 184946 -22412.5 373040 -133002 233722 -344031 
240 1 32.6422 30.9009 11.0504 0.119265 -414146 -218374 448586 -617330 -266750 35296.4 
306 1 23.8184 34.3524 12.9806 0.280476 -277506 100905 461391 524304 -324377 -121318 
243 1 23.7493 32.5788 11.0196 0.177466 -665292 -476626 1.11893e+06 -205965 72831.4 190471 
244 1 21.9761 34.281 11.0648 17.0746 670505 1.66375e+06 1.87622e+06 246735 59272.9 98093.1 
1503 1 27.2014 36.1161 10.9573 0.493942 -54494.1 -298995 143933 -16426.5 279916 85010.9 
247 1 27.4243 32.7759 10.98 0.699673 521043 561216 925656 18161.5 147965 21965.2 
248 1 25.4196 34.3442 10.9412 0.399568 122540 103444 774652 -304269 350772 76392.1 
309 1 25.5544 32.5594 12.9369 0.30001 574164 62725.7 463381 -12763.5 -88345.4 -190974 
1505 1 29.0574 36.1177 9.14241 0.281106 83962.1 136008 597128 187583 61021.4 -281420 
249 1 29.1666 32.8222 9.15504 0.196144 -171068 198940 401134 -213673 342621 -147711 
251 1 30.8913 32.7949 11.1763 0.403795 -634267 -542415 826116 -734941 37585.9 1155.95 
252 1 29.1615 34.5153 11.1399 0.393724 23786.3 -660817 481782 -184796 80191.9 -321394 
3063 1 36.0781 32.7246 12.8368 0.805845 -73639.3 495809 494876 143714 -365004 -198640 
253 1 32.6382 32.7426 9.21449 0.375205 -534094 -653116 396220 -231183 -18921 -272755 
254 1 34.339 34.5755 9.13613 0.501674 -565132 -538695 507129 421914 -105309 40360.5 
256 1 32.5454 34.3745 11.043 0.823318 -788921 -500131 147934 -559072 -14098.9 -154845 
255 1 34.4139 32.7113 11.1031 0.273189 -177069 338548 324409 121725 -620692 -57091.4 
259 1 24.3722 21.9248 14.7609 13.1781 737375 699002 950963 -368653 973338 -190744 
260 1 22.4124 23.611 14.6752 16.8779 943707 729309 854042 25653.2 107265 276659 
321 1 22.7581 22.1079 16.4796 33.5351 290302 55791.1 907376 -526750 416145 408114 
322 1 24.2838 23.8405 16.7013 1.10959 -397295 -478179 1.22683e+06 -925680 -21824.1 -235393 
263 1 27.2859 21.8042 14.8914 14.7162 1.41764e+06 484004 1.79061e+06 56924.4 95268 -32050.4 
264 1 25.9174 23.8333 14.8403 0.642979 -109207 -524154 1.09201e+06 -471434 319006 -110565 
329 1 29.2391 21.8002 16.7041 17.1337 1.37282e+06 598544 1.44036e+06 -231820 -169003 124779 
267 1 31.0133 22.0187 14.7989 14.8592 727866 104772 1.1556e+06 -347299 187677 52330.4 
268 1 29.0404 23.5716 14.8246 1.33283 418177 -303576 680697 256388 -83072.6 -265104 
330 1 30.8556 23.6831 16.7686 0.526828 205300 -274859 340957 42550.5 284293 142116 
3009 1 36.1388 21.9537 13.0146 17.3225 1.09214e+06 398820 1.17586e+06 271080 394027 42003.8 
270 1 34.4516 23.7284 12.9976 0.274922 174758 -271797 533575 204199 407752 102519 
272 1 32.712 23.6815 14.7779 0.51451 -447549 -575858 796217 141789 251238 312819 
271 1 34.4984 22.0429 14.9163 15.5787 849808 196700 1.12694e+06 180638 260751 131839 
334 1 34.5431 23.8881 16.7676 0.849599 -193188 -73583.4 900272 -312799 12689.7 -180956 
274 1 23.9084 27.3789 13.0598 0.517806 97111.6 -191713 508578 -503415 -34864.1 115145 
276 1 22.1558 27.2233 14.9657 16.9274 309203 1.39725e+06 1.22034e+06 -176254 -109303 -92189.3 
275 1 24.0993 25.5709 14.6683 0.808907 171043 108906 423066 -38664.3 -198987 161512 
337 1 22.3291 25.4144 16.7406 17.6534 560562 1.15005e+06 1.83078e+06 -169730 -132311 113978 
338 1 23.9162 27.2911 16.7789 0.221556 -171267 604472 500739 -400369 -38654 102503 
342 1 27.5183 27.4596 16.8368 0.696822 -427058 -591107 119415 -285439 -178777 -167225 
279 1 27.5561 25.5075 14.7179 0.710624 -243474 -425154 503388 -577835 57333.1 33333.8 
280 1 25.7419 27.4136 14.957 0.754338 183849 -148194 541837 -354077 -89265 -138027 
341 1 25.8756 25.6216 16.7196 0.528171 92917 -589659 353228 -486152 -334536 113426 
283 1 30.8897 25.3242 14.8491 0.75516 -55916.5 307610 131944 196929 250320 26432.9 
284 1 29.2867 27.314 14.8931 0.268701 -323942 -433057 134363 -520071 -258499 243000 
345 1 29.1932 25.5633 16.6757 0.564278 -228841 -399954 492291 -548041 156948 162283 
346 1 30.8276 27.241 16.806 0.505847 -500112 -292633 28098.7 -353028 79463.8 280076 
288 1 32.6199 27.1733 14.9532 0.541506 349221 6553.04 554412 377999 -82820.6 15888 
287 1 34.4746 25.5936 14.801 0.609434 -220479 74833.6 107859 -53833.2 -7595.86 -169377 
285 1 32.7302 25.5597 13.0541 0.672049 57112.8 153686 219455 470910 86075.8 -147505 
350 1 34.4393 27.13 16.8437 0.643103 -88359.6 202104 495701 -481360 149299 65297.2 
349 1 32.6547 25.4555 16.7386 0.237602 -120811 43799.8 518836 -101992 141905 389203 
353 1 22.1089 29.1391 16.8047 15.2654 -125644 325420 1.14514e+06 -936589 167595 -120061 
290 1 23.7914 30.8378 13.0106 0.209189 -13268.1 567423 743495 -297330 132726 -74980.8 
354 1 23.6742 30.8012 16.7624 0.775205 -551398 -365174 695120 -659104 -445909 -368564 
292 1 22.0387 30.6912 14.8254 15.5181 121179 1.2615e+06 983868 173703 -48007.9 45393.5 
291 1 23.8746 29.0521 14.9093 0.144644 -161364 -95416.7 377405 299949 -27863.4 -204374 
296 1 25.6728 30.8879 14.807 0.229568 123145 -68279 264076 -437682 -344201 174578 
295 1 27.5151 29.098 14.8197 0.169735 70508.3 -402918 389108 -416847 61108.9 -4346.29 
357 1 25.6813 29.1251 16.6924 0.171425 141961 -365185 49510.1 -144159 -294639 -517300 
358 1 27.4155 30.8854 16.6045 0.326815 -476595 -211128 -200201 -382878 168508 174543 
362 1 30.9359 30.9248 16.8011 0.211402 -553701 -276617 381155 -129902 12090 39081.4 
300 1 29.1766 30.903 14.8781 0.1375 -316698 -159317 -242776 -61112.6 161754 33381.7 
299 1 30.9239 29.0276 14.9211 0.136416 -267364 -221947 495062 -588025 132902 93257.6 
361 1 29.2393 29.1533 16.7693 0.259561 -518889 -673264 -36223.7 -315007 358496 -329244 
3048 1 36.1294 30.7456 14.8693 0.309042 -165379 382022 711305 117526 20200.5 -345800 
303 1 34.3658 29.044 14.8029 0.49541 27362.9 14336.9 871917 242998 -172820 -306680 
304 1 32.6784 30.7839 14.9021 0.213357 166741 28309.6 634915 98613.8 -9869 -162088 
366 1 34.392 30.7176 16.8155 0.557382 -285111 -305874 958030 -64619.5 -171238 -73602.3 
1571 1 23.7745 36.0952 14.8389 0.257098 -997110 -355392 203680 276965 -13022.9 -151535 
1569 1 22.105 36.0433 13.0107 14.1438 -58160.4 929206 954245 327212 -184856 -20630.5 
305 1 21.8675 32.6646 13.0402 18.4669 1.06557e+06 1.94854e+06 1.77387e+06 -150074 -76527.5 144062 
308 1 21.9449 34.4466 14.9616 18.984 572516 956746 1.11307e+06 -237747 -86134.2 -270848 
307 1 23.7649 32.6393 14.8755 0.16075 535463 842981 1.02871e+06 -183470 -153808 98353.2 
1641 1 22.1269 36.069 16.7641 15.9575 -506871 141320 1.06013e+06 212394 112475 -338280 
1575 1 27.2397 36.0645 14.9693 0.512438 -811317 -1.14896e+06 -728387 -188834 161162 -344603 