ITEM: TIMESTEP
16000000
ITEM: NUMBER OF ATOMS
5780
ITEM: BOX BOUNDS pp pp pp
3.3753973151942853e+00 6.8924602684821238e+01
3.3753973151942853e+00 6.8924602684821238e+01
-5.5047007999741000e+00 7.7804700799989632e+01
ITEM: ATOMS id type x y z c_csym c_2[1] c_2[2] c_2[3] c_2[4] c_2[5] c_2[6] 
7 1 26.7093 21.5823 -5.45222 14.9209 546492 86307.1 359465 363446 -370017 84036.3 
4 1 21.6139 23.6071 -5.4384 16.728 314298 315841 684722 119169 -158472 -415008 
68 1 21.8165 23.4177 -1.85508 20.9232 -11328.9 -537975 465667 361372 30022.8 -35292 
65 1 21.8446 21.8022 -3.68004 39.8859 300104 265167 -119720 -126263 58822.6 -148738 
66 1 23.4844 23.6045 -3.77401 5.72953 -1.16488e+06 -1.2849e+06 112384 130415 59144.4 -130767 
69 1 24.9745 21.6543 -3.71809 12.9113 631127 -67863.4 496836 150437 345451 87361.1 
67 1 23.3939 21.6131 -1.84859 21.1996 -211741 128658 293927 360779 -209535 -171575 
81 1 21.6506 25.2003 -3.49475 15.3631 11632.2 573417 417042 356897 -45187.8 64698.6 
73 1 27.4881 22.073 -3.16501 10.7627 157986 -208097 187880 87776 459747 -142911 
70 1 25.9047 23.9157 -3.18061 5.33125 -308828 -125611 88812.6 35352.9 112810 360480 
12 1 27.5321 23.9603 -5.00197 5.32325 -368064 -234660 -562426 -9510.11 365547 204368 
71 1 25.8749 22.1289 -1.35284 10.4538 -681620 -377368 -304920 -114473 304995 15766.1 
77 1 31.161 21.8784 -3.36727 9.88346 847929 516560 1.07738e+06 -80135.2 75985.7 144276 
11 1 29.2476 22.0307 -5.04775 11.2131 883571 460868 81852.6 155180 274207 -83816.6 
74 1 29.3304 23.7465 -3.20718 0.629861 665125 -266355 414962 -46417.7 -81254.3 292853 
16 1 31.3764 23.8735 -4.89512 1.33644 -47512.9 78634.2 27909.4 -289612 -430929 -139325 
80 1 31.2539 23.6641 -1.45032 0.734893 -44570 -524342 740970 422811 -61470 468042 
2793 1 34.8257 21.9135 -2.99144 14.395 514978 -229817 421055 -209587 -423427 -533902 
15 1 33.0661 21.8813 -4.89235 14.6561 851788 341533 994345 -176362 202050 -426955 
78 1 33.014 23.6905 -3.21838 0.566105 -652106 -81829.9 -679097 -139516 -189451 47332.7 
2724 1 34.7393 23.7483 -4.96844 0.0736498 -123713 -15646.1 448951 -59174.6 543019 -167481 
79 1 32.7439 21.8529 -1.39621 14.0499 555011 -176811 824848 651602 479105 59307.6 
20 1 21.7385 27.0675 -5.28176 12.5083 -541361 356768 720964 476393 -60404.5 -312504 
19 1 23.4373 25.4189 -5.42724 6.39234 -488312 -930008 223031 225340 241801 169807 
82 1 22.3304 27.6867 -2.85445 9.08716 -431185 -61681.9 662293 -575431 -107225 408681 
24 1 24.0556 27.6192 -4.74126 6.18528 -647006 -842413 73165.1 -507944 -36060.4 -39407.8 
85 1 24.0264 25.8 -2.94709 5.60036 -75359.9 -475493 188580 -417943 -175834 -201173 
89 1 27.7248 25.7087 -3.10566 0.254669 -489613 149396 54703.8 -101083 107722 -159374 
23 1 25.8639 25.8294 -4.83837 6.28905 -21525.9 31591.2 -270763 374907 -174116 -4708.71 
86 1 25.8615 27.4683 -2.97929 0.264381 314023 -49152.9 -154427 -164190 -422247 104936 
28 1 27.7217 27.6519 -4.8614 0.553788 174519 466063 85814.2 -75115.7 299181 -200845 
93 1 31.2309 25.6324 -2.97941 0.548175 111268 386108 -113702 72168.7 321561 303906 
27 1 29.464 25.6399 -4.78666 0.586724 79561.5 97926.6 -87263.5 -235597 52020.8 97761.3 
90 1 29.475 27.4674 -2.98836 0.150004 -14834.5 -179121 32413.8 -38970.3 146671 -19861.7 
32 1 31.291 27.3987 -4.87699 0.315308 505807 753373 545807 -170863 -210985 -70853.9 
2811 1 34.6876 25.515 -3.09322 0.269801 38740.4 53933.4 -156200 -27013.6 143508 58885.5 
31 1 33.06 25.5785 -4.97511 0.26624 -715081 -418046 135311 -432900 -165302 109602 
94 1 33.0232 27.4429 -3.04336 0.304799 -98181.1 523091 467229 -79846.6 108961 280216 
2742 1 34.7541 27.3693 -4.7899 0.433416 -83510.3 -68189.4 340413 -15486.1 251193 -72897.4 
36 1 21.6456 31.9218 -4.01918 15.1168 668110 756411 962878 -92707.1 4352.39 -475930 
101 1 23.9441 29.3652 -2.83716 5.65408 -322509 -121151 229245 -594038 -118000 -179921 
35 1 22.1772 29.5033 -4.58395 9.20574 335727 643943 645411 -56971.7 -222041 208638 
40 1 24.0594 31.2732 -4.68657 5.80389 489915 328676 662608 -256229 286588 -8419.48 
97 1 21.6604 30.0317 -1.99513 14.9433 -221109 459160 703243 -360984 -133747 -163006 
98 1 23.4577 31.7082 -2.09707 5.92681 -669903 -182409 247187 -58424.2 270249 -29126.8 
105 1 27.7144 29.351 -2.98094 0.157714 -71923 122012 -192863 -119265 -358275 1659.82 
39 1 25.8228 29.3821 -4.67856 0.287334 307434 378348 564555 -191511 -213618 -59478.9 
102 1 25.9337 31.2107 -2.8266 5.59825 632867 333431 584444 59918.3 -24887 -79.9431 
44 1 27.6036 31.2258 -4.82079 0.358601 625733 139605 -75351.8 219874 184226 328277 
109 1 31.2709 29.3345 -2.92793 0.34719 -111326 -29858.4 267719 -287469 -1969.51 121660 
43 1 29.5444 29.4188 -4.76757 0.559896 555648 581303 681875 -524495 38629.8 -352732 
106 1 29.4866 31.1044 -2.97294 0.148899 223042 -352572 -47570.7 -130890 227355 -51176.8 
48 1 31.4207 31.017 -4.79859 0.54321 -608045 -908379 225925 -234912 498739 77270.2 
2829 1 34.8947 29.1082 -2.92792 0.249115 -451163 -129563 272151 -169895 -217384 -364719 
47 1 33.0663 29.2461 -4.82052 0.121904 -26180.8 -380537 258283 301861 234534 245995 
2760 1 34.7606 31.0852 -4.78416 0.51484 -332121 -58214.5 246831 109154 -64880.3 -347555 
110 1 33.1062 30.8859 -2.82498 0.750445 -413624 -88350.1 -168897 -258725 -41389.6 -243073 
51 1 23.4912 33.6886 -3.99045 6.14936 -817042 -32926.3 106409 -136262 -275121 -223860 
52 1 21.723 33.4785 -2.17143 23.6686 686493 1.00116e+06 1.06392e+06 309127 175433 -562913 
1281 1 21.8081 35.4912 -3.93272 23.7592 453885 1.02412e+06 1.19146e+06 242091 77353.3 -294051 
1283 1 23.5596 35.3262 -2.09918 5.26989 -469146 53731.8 -391437 164770 -240357 -247928 
117 1 25.218 33.5461 -2.27206 5.36531 33401.9 -234676 -72858.7 476118 -296872 1751.46 
56 1 25.3213 35.2874 -4.06037 5.72254 -383347 -672811 74048.4 -324014 -122237 -201329 
121 1 27.7047 32.9694 -2.93191 6.35344 265376 -449039 -149836 -381641 21635 451593 
55 1 25.8658 32.9935 -4.74744 5.74939 -875495 -621230 -50057.2 -137671 76835.8 -331235 
60 1 27.6816 34.6554 -4.6196 5.72742 400648 -21665 123476 -306615 96380.6 346918 
118 1 27.1507 35.3922 -2.29735 5.55155 283221 320059 -178762 52189.2 -41045.5 -148514 
125 1 31.3999 32.8105 -2.97169 0.310735 -316007 280632 -335589 54549.1 -243203 -98787.2 
59 1 29.7071 32.8831 -4.72121 1.23146 414457 340273 -9635.97 -177043 -3389.57 89569.8 
122 1 29.6006 34.5696 -2.84999 5.3186 -119623 -324877 -724.593 -342635 76603.7 -157966 
64 1 31.3692 34.7038 -4.74408 0.295988 -290782 -433213 141739 -128403 331275 -260597 
2847 1 34.8404 32.8386 -2.99265 0.3482 46492.4 64999.1 -133299 103829 68661.4 -309174 
63 1 33.0378 32.801 -4.80548 0.221126 -891926 -667449 -66263 -92721.5 100802 6954.18 
2778 1 34.7952 34.6006 -4.81128 0.357713 -540476 -590882 -500147 23109.8 -114457 77917.1 
126 1 33.1603 34.6403 -2.85976 0.331037 -291573 -605399 -314796 120880 179499 -354863 
133 1 24.1919 22.0269 0.472229 14.8235 322081 159680 175007 -460576 91268.7 -64543.8 
130 1 22.4153 23.9386 0.625366 11.4732 315175 77014.4 820823 -295897 -26733.7 527838 
72 1 24.1802 23.904 -1.24971 5.38279 -389248 -526065 47523.9 -256296 -227099 7612.41 
131 1 22.4831 22.1683 2.32665 41.3002 -63379.2 -499404 133996 -373558 218515 99915.6 
136 1 24.2534 23.6982 2.39544 5.84593 -1.24566e+06 -719008 -287260 -349849 225683 -141196 
137 1 27.6025 21.9381 0.335343 16.3504 444579 34185.4 597472 -256336 36159.6 358567 
134 1 25.8499 23.8153 0.584402 0.282627 -988942 -747328 -814693 237252 -166240 47067.4 
76 1 27.6085 23.8222 -1.29278 0.161319 -83558.6 -402930 -14417.3 -216735 -168088 125908 
135 1 25.938 21.9601 2.29528 17.5196 586153 -285654 738464 138662 217646 6217.47 
140 1 27.5806 23.7989 2.30095 0.678102 -168126 59791.2 492558 -36956.4 54726.3 297292 
141 1 31.1503 21.764 0.365157 18.0214 226010 518892 357009 -159531 264557 258410 
75 1 29.4128 22.0293 -1.31666 14.8319 535816 -103324 350040 -168105 -63340.7 -216236 
138 1 29.3602 23.6615 0.491679 0.449587 605522 -98164.7 82785.2 724.793 -310325 -65944 
139 1 29.4673 21.9134 2.23957 13.9191 938872 123635 890455 -550679 442744 309805 
144 1 31.0879 23.6648 2.44524 0.202685 -97797 180853 809371 -370264 -46109.1 -114121 
2865 1 34.7462 21.6785 0.576684 17.9239 1.59793e+06 719570 1.36267e+06 -225387 -84200.4 -216225 
2796 1 34.7098 23.5785 -1.26631 0.355786 241902 81294.6 164556 -882.896 84.372 -533951 
142 1 32.8275 23.5844 0.537915 0.404964 896144 754780 852307 -326240 -154062 -19001 
2868 1 34.6207 23.4294 2.38521 0.354505 56753.4 -794776 424654 126607 -438443 -7627.47 
143 1 32.8297 21.7252 2.39573 17.6956 1.73686e+06 674946 1.80582e+06 -278196 -147050 21427.1 
145 1 21.8685 26.3469 1.35249 16.2822 304630 1.32429e+06 1.03255e+06 -149434 -293455 -20681.5 
84 1 21.6898 28.2602 -0.328783 16.3405 452265 883176 1.03703e+06 -270693 -40909.1 367366 
149 1 24.2395 25.581 0.609287 6.46508 -360344 -292814 156632 136833 201663 -50366.1 
83 1 22.2609 25.7592 -1.10951 10.1053 523505 606661 451729 -281114 35174 228036 
146 1 23.6765 28.0721 1.40457 5.81163 -759162 145940 -182282 -267809 -25345.4 229569 
88 1 24.0867 27.5505 -1.0326 6.09402 388257 -193592 280961 -85383.3 -112095 -86585.2 
153 1 27.7462 25.6329 0.566145 0.285662 459020 78936 497358 101919 -107468 92252.6 
87 1 25.9022 25.7356 -1.20947 0.182552 -61958.8 216132 153270 -220062 126621 392771 
150 1 26.0096 27.4473 0.774819 5.39952 -12369.8 312490 349531 -39475.5 -43803.1 47018.2 
92 1 27.6924 27.5231 -1.2629 0.318726 -310949 9237.21 81103.1 -444068 -71096.6 189847 
156 1 27.7616 27.399 2.57079 5.30635 -180000 259819 161954 -36961.9 -107887 157467 
151 1 25.971 25.5852 2.4978 5.47298 -138790 -186645 515011 296471 40248.1 93963.3 
157 1 31.207 25.6292 0.641075 0.440616 857787 699640 623834 -124614 28168.7 -70831.5 
91 1 29.5369 25.6115 -1.32671 0.534075 56570.8 856800 130917 -101700 424291 365175 
154 1 29.3778 27.5251 0.642558 0.585622 -91910.3 180906 272930 -39111.5 125920 116708 
96 1 31.2298 27.5099 -1.08938 0.328363 447585 387913 489758 -264713 15982.4 22084.9 
155 1 29.4536 25.5289 2.48317 0.233725 31106 39346 430583 31613.1 -140458 123528 
160 1 31.1903 27.2924 2.4793 0.292399 132014 60236 75423.5 -49138.2 358854 -239721 
2883 1 34.7411 25.357 0.739134 0.327337 42796 614889 -251057 -87445.7 -366090 210061 
95 1 33.0783 25.5555 -1.1871 0.420713 233366 726988 700978 -495881 31342.9 133554 
2814 1 34.8082 27.2077 -1.08388 0.341242 -121773 -187984 795703 -105368 -158678 -29109.2 
158 1 33.0319 27.3447 0.796311 0.247614 -4881.98 99821.4 -84501.8 -280510 -10677.5 -67655.7 
159 1 32.9452 25.3797 2.5619 0.204988 -28395.9 545457 253514 -142666 -20586.6 98760.7 
2886 1 34.7735 27.1804 2.56883 0.173342 46606.9 571923 303286 52226.2 -109445 81664 
99 1 23.5573 29.8803 -0.383571 5.96536 -1.03892e+06 -831386 -164411 5520.85 -109874 229443 
100 1 21.9613 29.9027 1.64489 23.2835 572823 926113 908010 89186.7 -51208.1 92418.1 
113 1 21.9213 31.7062 -0.214606 22.0894 -138251 484805 152032 129216 130661 -381276 
115 1 23.5907 31.8093 1.55751 5.86863 -376502 -26825.7 -27861.7 70932.6 3370.56 127878 
104 1 25.239 31.6741 -0.366382 5.39096 222952 216701 263835 -146899 -209177 77965.2 
165 1 25.2792 29.9427 1.49508 6.18295 -101417 152307 93571.8 -162261 -86507 299065 
169 1 27.6704 29.2896 0.799039 5.77987 88686.3 18471.3 200659 29002.9 236420 -77564.2 
103 1 25.8831 29.2797 -1.11482 6.12924 236818 427803 1.08551e+06 91495.6 59748.5 -9356 
166 1 27.155 31.7477 1.33645 5.6572 -206065 7838.62 517296 -181405 -35595 32731 
108 1 27.7698 31.1313 -1.10224 5.52877 -84613.3 -272832 255208 52825.7 -73364 -145259 
173 1 31.2623 29.2319 0.771388 0.167264 105883 81630.3 262973 -149934 347709 -75986.7 
107 1 29.3894 29.2745 -1.17676 0.359726 -230454 -332257 148629 -5297.1 -152492 186248 
170 1 29.517 31.0531 0.783651 6.16172 -95005.9 -586718 255970 134415 189184 -35507.4 
112 1 31.3086 31.0127 -1.07053 0.0973238 271459 254623 161735 -1738.11 304297 -195806 
176 1 31.2837 30.8961 2.77133 5.54941 -463288 63598.5 82709.8 -107212 46726.6 -154457 
171 1 29.54 29.1819 2.605 5.41477 -499003 -163960 81444 -193398 196192 -159117 
2901 1 34.8987 29.0843 0.760103 0.263422 -79484.6 405358 341624 -56530.9 -248758 252020 
111 1 33.1265 29.1581 -0.958984 0.439893 -85457.6 157719 360418 -347745 -114599 381755 
174 1 33.0528 30.9757 0.90539 0.503778 364958 -83258.3 658791 -107103 33335 -268923 
2832 1 34.8792 30.9014 -1.06714 0.096781 -366979 -288949 65551.4 -182722 -434711 -330039 
175 1 33.1416 29.0481 2.58558 0.485938 542315 97752.1 257749 153478 -42049.2 -278308 
114 1 23.5847 33.5601 -0.304767 6.20248 154076 36936 263027 17570 301144 261600 
116 1 23.0823 34.1929 2.10336 14.1258 562.342 924262 937598 213539 -10823.3 -21800.2 
1353 1 23.1079 36.1132 0.204973 14.099 110062 1.24025e+06 749467 44963.8 -56396.4 -279712 
1355 1 24.8701 36.0291 1.96749 5.36578 164773 164096 545197 101363 -149399 -325419 
1357 1 25.3981 35.3357 -0.474024 6.51821 -228808 460898 244307 40266.7 -127303 -119637 
119 1 27.1107 33.4745 -0.525677 5.43157 399806 -118485 235487 103089 20652.2 -130504 
120 1 25.4035 33.5483 1.51831 5.61376 -375755 97035 629862 -185971 -58130.1 16894.8 
1359 1 27.277 35.1542 1.36054 5.96747 148135 34370.9 -43934.6 -157294 100861 341518 
185 1 28.9968 33.3455 1.36028 5.79799 -597244 -852690 -58733.2 190588 239656 -162125 
124 1 28.965 35.1761 -0.500006 5.71373 195892 -97227.8 43568.8 164187 175600 -8826.12 
189 1 31.3571 32.7357 0.84495 5.8991 -363760 -54580.6 -17480.3 169344 74595 -173251 
123 1 29.5376 32.8004 -1.04544 5.90051 -47639.9 -634747 -10964.4 -215388 -53909.5 143906 
186 1 30.8145 35.2365 1.31987 5.30673 135590 392587 -110162 147615 560701 41332.6 
128 1 31.4265 34.4851 -1.00624 5.44915 -113146 -5306.28 69858.7 -135280 136100 -20501.2 
2919 1 34.9322 32.6648 0.70114 0.497981 -140460 -141836 313454 137605 52739.3 -8008.7 
127 1 33.1635 32.7182 -1.11781 0.294571 -226977 -69468.6 202059 169890 -124162 -204980 
2850 1 35.001 34.4714 -1.04087 0.193874 -465765 -797666 -249118 346855 161044 -82161.9 
190 1 33.2075 34.4809 0.856962 5.53853 187615 317931 378616 18385.7 80929.6 -3030.06 
2922 1 35.0053 34.4861 2.783 5.11196 -208783 158595 1.1205e+06 381778 -11517.8 134091 
191 1 33.1586 32.673 2.69699 6.03831 112815 -130021 332607 277692 -126739 -386537 
193 1 21.9693 22.5082 4.67011 51.2566 -377636 -449927 114856 -206170 33359.6 373848 
194 1 23.6659 24.0957 4.87565 4.58453 -2.08424e+06 -1.29062e+06 -580880 -62801.4 3343.56 -323167 
197 1 24.2386 21.7658 4.14628 16.1173 288974 259763 517102 75824.4 355085 -91108.1 
195 1 23.6071 22.107 6.5269 28.6268 91796.7 -72703.2 348114 424650 260761 -244767 
129 1 21.948 24.4053 3.2004 19.2629 -304869 10891.3 541838 -187339 -320784 251148 
200 1 25.3315 24.0644 6.73831 1.17158 -822459 -436057 -509270 -152113 -260310 443707 
201 1 27.8865 21.846 4.10148 12.9467 1.17351e+06 375050 899867 -443361 22193.2 -63501.1 
198 1 25.9689 23.6794 4.2353 6.04475 49891.8 305672 284783 59410.3 196700 -32638 
204 1 27.7509 23.5454 6.13666 5.12546 -493193 -420401 238113 -43927.1 93801.7 339793 
199 1 25.9775 21.8069 6.00518 13.6376 357366 -83830.5 1.0846e+06 -111004 -252856 -15218.8 
205 1 30.9457 21.6958 4.37902 15.3531 1.38383e+06 755372 1.24564e+06 -124651 -52397.3 -200542 
202 1 29.3565 23.7612 4.26824 0.693529 56362.7 -115015 345600 -506372 504376 -16958.3 
208 1 31.0496 23.4838 6.22982 0.229459 183073 59626.4 221505 566392 294630 -163715 
203 1 29.2376 21.6618 6.1661 16.1884 542734 319097 651210 439130 45884 -52926.3 
2937 1 34.6366 21.6925 4.28875 16.758 1.09179e+06 260418 1.07106e+06 -352676 134294 -190155 
206 1 32.7292 23.5137 4.34042 0.513645 468529 284220 619267 73077.5 -249960 260829 
207 1 32.6973 21.7033 6.18942 16.3214 570850 -44095.5 727024 289951 -612448 -150802 
2940 1 34.5872 23.4035 6.07467 0.338263 421842 -412154 239753 -342291 -177687 311319 
2955 1 34.7037 25.1639 4.27517 0.511429 145401 441803 -9495.14 247882 -439844 191532 
147 1 23.6115 26.1598 3.091 4.65626 -1.19024e+06 75974.9 -255970 24938.8 158540 220417 
148 1 22.5305 26.1308 5.23576 17.4222 301713 318895 646830 276153 634256 -300670 
163 1 23.8859 28.1825 5.2289 6.04953 93892.1 198170 115141 -405727 305798 276919 
161 1 22.2139 28.1061 3.4377 22.1947 -51974.7 370177 788055 4115.31 159848 -63522.1 
152 1 25.3434 28.0289 3.1689 4.89704 -233776 231095 -664111 89546.5 -675278 -8714.87 
213 1 25.2346 26.0411 4.9828 1.21213 -465572 140589 -582860 -168580 6135.33 -241865 
217 1 27.6754 25.611 4.4793 5.46492 -334844 -285329 328887 245809 -39846.5 -80299.5 
214 1 26.9209 27.844 4.99097 1.06197 178568 -992185 264986 461908 -575530 -103516 
215 1 26.9069 25.9971 6.81707 0.290075 618860 425972 -521466 -178240 -8526.8 158148 
220 1 28.6694 27.9536 6.82646 0.763418 237977 -102038 907053 -243625 -20229.6 -16924.8 
221 1 31.1708 25.4526 4.36227 0.10814 -481517 -11423.1 405593 128713 57645.5 -152550 
218 1 29.5032 27.2539 4.39551 5.24761 -283109 -406328 403202 -426682 -84762.3 67491.1 
219 1 29.4087 25.443 6.23261 5.50573 49833.5 163696 -60119.4 -328466 -172176 202513 
224 1 31.1554 27.2163 6.40856 5.40052 239829 -46619.9 324859 -388069 -95840.7 61164.7 
222 1 32.9922 27.1635 4.41295 0.210874 269926 -53052.5 81651.2 -51146.5 -263522 -173.794 
223 1 32.9691 25.4065 6.20579 0.598428 159258 524601 446152 -251125 -211287 249564 
2958 1 34.6856 27.0748 6.20191 0.371665 -596111 -545848 264691 -164153 -268274 230787 
239 1 32.9546 28.8626 6.31125 5.84273 -108187 -205180 143673 -95118.2 -174375 -61712.4 
162 1 23.7482 29.9588 3.41875 5.27931 -453935 110629 357590 -333306 357517 360371 
164 1 23.394 30.7167 5.93835 10.3059 -57444 665176 1.26816e+06 -298723 -169092 43386.2 
177 1 23.0511 32.4492 3.8998 11.7066 488512 1.1839e+06 1.10212e+06 -186744 163753 91233.3 
181 1 25.4862 31.7814 3.33489 5.38208 341153 316735 368416 -97402.7 -250358 24297.1 
168 1 25.6788 29.8616 5.12766 6.76417 281646 -53149.5 801951 -7492.02 486561 -212326 
167 1 27.1582 29.8431 3.13002 5.31098 -380647 537583 -762605 89053.4 -206589 -196902 
183 1 27.2954 31.7644 5.03751 6.66336 295696 296096 133854 -263943 302156 -363094 
233 1 28.7568 29.6441 4.97358 1.74706 588499 526687 -93915.7 -5983.48 -171050 283985 
172 1 28.9766 31.6172 3.203 5.89138 -423264 13472.4 -154256 -50293.5 242067 -58738 
237 1 31.2502 28.9499 4.49426 6.0028 -337548 -168827 626402 -226386 -540634 137958 
234 1 30.6305 31.3643 5.149 4.95564 -98440.1 369909 -121554 294727 -230529 -35202.6 
235 1 30.412 29.5812 6.9881 0.590365 28531 -530261 706490 -542939 -51834 61656 
240 1 32.2943 31.2022 6.90904 0.732457 77906.7 386627 -354897 -92613.9 -190133 53263.2 
2973 1 34.76 29.0512 4.57302 0.404572 -324365 -321936 -95736.9 192544 -260724 193329 
238 1 33.0005 30.7248 4.54593 5.94555 -796461 -79996.8 -302261 341852 -118029 -101273 
2904 1 34.9071 30.9014 2.85522 0.967169 243879 -218548 755287 -85091.8 -31460.9 -166210 
2976 1 34.7187 30.8089 6.37418 5.37827 -300994 -108708 -572329 121596 325552 -492334 
1425 1 23.1327 36.056 3.95853 18.7797 356744 749091 1.05129e+06 2398.71 46174.8 127851 
179 1 24.9546 32.5602 5.72813 5.88854 -258205 -8368.31 90575.6 -294046 207656 475664 
178 1 24.7952 34.1986 3.93177 6.01143 28362.2 167089 -82813.6 109140 40924.3 155329 
180 1 23.1371 34.3062 5.78766 12.1981 414775 1.09057e+06 1.05689e+06 111065 331874 177753 
1427 1 25.0851 35.9904 5.73915 0.115578 -17911.4 -203413 251456 156349 239547 -97111.4 
182 1 27.3134 33.5996 3.23532 6.01005 592767 -277349 -512274 -70039.2 207520 232872 
184 1 26.8593 34.2613 5.57436 4.93854 418686 -247302 -324983 425752 188145 581635 
1429 1 26.8556 35.9767 3.84467 5.64001 484458 -402797 94033.7 273307 69087.8 270161 
1431 1 28.8056 36.085 5.4821 4.42455 -461329 -148463 -20066.6 264848 -198746 280014 
1433 1 29.1811 35.2874 3.1052 6.22136 -633378 2190.22 68890.9 -273632 582362 -182420 
1435 1 30.9808 35.1174 5.11537 5.66481 -55254 211571 398442 352174 550517 -316162 
188 1 29.2142 33.388 5.06996 6.22484 394682 336158 743142 -159122 438150 -445626 
187 1 30.7861 33.3305 3.14725 5.34466 -326924 167963 -198182 47695.7 255118 -323964 
253 1 32.448 33.1475 5.13514 2.80751 106759 32101.7 370391 27753.8 137146 -182668 
192 1 32.6597 35.0762 3.23894 6.38529 19463.5 514040 563687 65865.1 378170 -324347 
2991 1 34.8856 32.5975 4.60972 5.37477 421516 11630.5 -76270.8 371461 -915.601 -263012 
254 1 34.157 34.8887 5.34142 3.34906 610727 553673 204093 -46794.4 -537711 -47562.1 
261 1 25.1149 22.5572 8.54424 16.2073 -33461.3 -110976 50127.9 -482211 -183244 636822 
132 1 22.9462 24.3061 7.17692 25.8047 221868 143078 787567 115374 760947 -368958 
196 1 24.4014 24.9429 9.24877 9.96635 607497 752632 945319 -342606 105358 276942 
257 1 24.6031 23.2216 10.9402 22.2745 11054.6 522657 957633 18630.5 13109.6 393282 
262 1 26.8649 24.2518 8.6036 0.537354 20168.1 -1.09642e+06 -477952 -449732 -530261 233050 
265 1 27.5047 21.8799 7.96586 13.0655 648482 172440 -356865 -56533.5 260853 49372.9 
263 1 26.8138 22.4176 10.2404 16.3459 -158477 -306649 -266884 74454.1 -189678 126958 
268 1 28.7241 24.1899 10.408 0.31107 -1.08693e+06 -334039 67652.5 86558.3 323947 74287.1 
258 1 26.4735 24.7873 11.0181 5.20792 -1.4723e+06 -376009 640199 -36621.3 147826 -311594 
269 1 30.8924 21.6715 8.07593 17.1056 629078 426895 618934 117335 426776 185098 
266 1 29.3765 23.6683 8.023 5.09547 18972.6 -794877 -232534 129188 201325 -19716.1 
272 1 31.0634 23.5588 10.0277 5.46747 -495047 -23305.5 337821 -73444 -265618 146859 
267 1 29.2585 21.777 9.77422 13.2203 285329 273590 191334 -160792 658189 -44411.3 
3009 1 34.4923 21.6414 7.82814 15.3529 798150 94317.3 1.0539e+06 274296 -219663 148712 
270 1 32.8173 23.4063 8.02658 0.208502 233332 -175036 586265 578119 -379778 -231787 
3012 1 34.6355 23.4201 9.76957 0.491507 672633 529305 642841 115603 -175479 240775 
271 1 32.7034 21.6058 9.88096 17.2902 1.2882e+06 675399 1.12542e+06 121505 -396834 -14574.7 
287 1 32.8833 25.2218 10.0001 5.97704 90633.1 70471.6 34907.6 -285690 -306435 462606 
209 1 24.2696 26.4149 7.11181 4.72622 881765 979151 594815 168181 781346 75976.1 
212 1 24.3937 27.9339 9.65959 11.1791 -400719 887115 295576 433415 -573724 462647 
210 1 26.1742 28.4154 7.46509 5.28716 985494 226633 1.76623e+06 152065 63071.9 233126 
211 1 26.2896 26.5693 9.18148 4.41962 53897.8 -353332 730127 300718 454574 -114317 
216 1 28.0333 28.387 9.31357 4.98722 750926 904392 905631 -288344 -167644 -303345 
281 1 28.7835 25.9116 8.65727 0.436541 598147 -173301 609032 -16088.5 63671.3 -36294.2 
285 1 31.25 25.3074 8.12242 6.08774 -370669 -169365 647426 -271278 -410570 159555 
282 1 30.5643 27.7412 8.79911 0.255217 -5948.1 312615 40930.1 -87527.1 266832 -168880 
283 1 30.4184 25.9522 10.7 0.629298 -214150 -426010 442291 -202172 135237 -64011.7 
288 1 32.2511 27.6708 10.6999 0.227237 -400983 249004 40480.7 -338769 -204249 -58055.3 
278 1 29.8891 28.3593 11.1277 4.23151 -287217 -440961 301886 176407 100306 -259913 
3027 1 34.6124 25.2994 8.07878 0.209284 41508.9 364784 11484.2 -9167.97 -192338 333526 
286 1 32.8924 27.1143 8.3045 5.41117 -793497 -554478 434155 -292044 -161485 70618.1 
3030 1 34.7302 27.0074 10.0465 5.30851 -235642 -92608.1 -209912 118422 -49668.6 31494.9 
3045 1 34.6683 28.7638 8.18473 5.78982 -275433 153045 352753 86241.6 -161670 -129068 
225 1 23.6484 28.8703 7.57143 13.4545 495430 -140674 -667093 32673.2 -69113 -224499 
228 1 23.6826 30.5604 9.19217 12.436 -572971 -251587 -783952 -368475 398447 -355829 
243 1 25.2134 32.4458 9.06272 6.37984 -847408 -1.18922e+06 -727526 -803630 88106 -139082 
305 1 23.5682 32.3136 10.9871 12.9105 210877 725992 923698 -166157 216516 -128337 
226 1 25.3386 30.7155 7.45662 7.90731 -535541 -863852 -1.24854e+06 -100604 104952 -455893 
229 1 27.8733 30.2105 7.28764 3.72734 494927 -680636 1.76707e+06 -251952 429901 -321437 
227 1 26.0166 29.9045 9.7239 6.19367 -477275 -427555 -610178 -25747.7 -154057 241259 
232 1 27.7881 31.6515 9.52042 4.53869 514804 328575 551357 -215095 -430212 455735 
230 1 29.5788 31.9174 7.37295 3.91884 889839 98988.6 1.60637e+06 -469305 270249 -220024 
231 1 29.8471 30.1558 9.39625 5.19999 340948 -19464.5 376315 -305057 229648 -90508.3 
236 1 31.5834 31.8845 9.22725 4.79722 984754 337510 969661 -313632 140853 -436271 
301 1 32.3072 29.5164 8.82528 0.19717 -229855 -291164 367214 -77779.8 -330724 33692.6 
302 1 34.1895 31.2129 8.78439 0.571641 275504 187203 43364 -198569 198768 464413 
303 1 33.9852 29.5338 10.5781 0.6992 -354356 -278024 188574 64629 -59938.9 37144.8 
3048 1 35.903 31.2002 10.7238 0.416925 76100.4 86674.8 636402 -222830 -88200.7 -100205 
1499 1 25.1514 36.0173 9.4607 0.727618 -896292 -151309 -581770 -99626.5 -278482 -7051.39 
1497 1 23.4111 35.9851 7.70726 16.2047 -295589 346441 296664 29490.5 -168132 283816 
241 1 23.2783 32.5649 7.62909 10.4173 58978.1 866161 369957 -134548 -304707 -265721 
242 1 25.1997 34.2981 7.57056 0.427792 -330896 -790325 -338811 293108 72458.2 652553 
244 1 23.3778 34.2909 9.39439 16.0009 365592 87901.1 49071.1 -328741 168421 205966 
245 1 27.0226 32.5474 7.32576 6.23205 284447 -608745 -1.09466e+06 282568 110608 -97457 
246 1 28.8666 34.3776 7.32341 5.46735 293607 -228009 -208647 612177 12650 -221753 
248 1 27.0309 34.0868 9.24192 6.26908 -49247.1 -168217 -954382 -278218 -44494.3 -331408 
1573 1 27.0845 35.8028 11.0428 6.22248 465475 -270398 47883.8 -355189 -216165 193036 
1501 1 27.104 35.9826 7.57122 0.563601 -357166 -531716 384190 210549 -201986 -17229.6 
306 1 25.3997 34.0505 11.0746 5.87571 -777563 61590.8 145424 -333418 242456 278670 
1503 1 28.9342 35.9365 9.24901 5.44162 -267034 -470284 -329896 -204367 -329568 -87228.5 
249 1 31.372 33.7039 7.28943 3.79413 1.11078e+06 541096 1.24457e+06 -277489 185567 -55715.2 
247 1 29.5473 33.4321 9.5407 5.54997 571729 372255 869781 -363780 -346110 429754 
252 1 31.3667 35.1122 9.5486 5.13676 -116414 423406 586520 -114640 -33442.8 494807 
1505 1 30.7299 36.132 7.3034 5.60399 -133521 -951664 -690468 274795 -166667 -101928 
250 1 33.1244 35.4623 7.53052 4.60906 187846 -117401 950644 -193940 320589 -156912 
251 1 33.3451 33.6798 9.3738 4.65731 186225 422112 518757 -193725 51016.5 -175409 
255 1 34.0911 33.0816 7.08787 0.609329 724149 -317052 -18603.4 6421.91 18042.2 174678 
256 1 35.0552 35.4335 9.45893 5.61617 655386 -26206 457186 -652944 115625 -208811 
2994 1 35.7542 34.967 7.11041 0.945616 555517 294471 168997 22676.2 -546865 -26567.1 
3063 1 35.9847 33.041 8.88889 0.556948 115349 158170 -149387 -120726 -30432.7 -117781 
260 1 24.7139 24.6505 13.2335 14.083 528660 284126 1.39094e+06 30631.1 -37003.4 35013.7 
321 1 25.1255 22.6227 15.0675 29.061 584482 597675 1.16511e+06 -391555 -167485 -91672.2 
259 1 26.2664 22.8544 12.8562 12.383 -328314 426286 1.08514e+06 570541 34512.1 -100381 
325 1 27.9991 22.7131 14.6366 9.39525 -315761 -436373 1.01305e+06 832066 -27115.6 -147030 
264 1 28.1107 24.7057 12.9383 5.46516 -252566 282454 779119 162882 25140.6 108004 
322 1 26.573 24.4831 15.0558 0.897287 -497661 -941973 636446 41871.9 -147325 -248233 
329 1 28.5328 22.2759 12.1366 16.5846 468812 577738 818339 63923.6 325004 -97840.8 
326 1 29.6779 24.5438 15.0644 5.63841 -194251 -138020 515357 103108 256052 -294118 
333 1 30.9542 21.6797 11.7548 14.0747 473456 383302 651065 -99040.7 -280670 122827 
330 1 30.3931 24.0847 12.4184 0.228951 -140133 -34470 313749 272429 14934.9 35418.2 
331 1 30.3236 22.2953 14.2243 15.3707 -752672 -239576 569245 -2216.06 230955 70953.1 
336 1 32.0701 24.0187 14.2655 0.282156 96240.5 -763999 621996 -402030 -51473.6 -3705.98 
3081 1 34.4213 21.5873 11.63 17.0757 910487 344201 1.30757e+06 50624.9 -170065 -19624.3 
335 1 32.6072 21.6832 13.4889 13.4273 353157 182245 537295 -75897.6 -146921 100707 
334 1 32.8183 23.4347 11.72 5.67225 82510.5 -699432 178065 182113 -421719 402149 
3084 1 34.5557 23.3572 13.6423 5.97183 628136 -3984 227955 -203155 -348863 160708 
3099 1 34.7018 25.1597 11.886 5.21241 -251903 -147606 367034 16699.4 -98895.9 273901 
273 1 24.5994 26.2051 11.3723 12.4974 -60014.9 314527 253491 291252 -131438 512507 
276 1 24.3755 28.0284 13.3184 17.4439 602411 1.4745e+06 1.43773e+06 -114851 -84868.2 -126999 
337 1 24.5642 26.2608 15.1836 18.2163 711966 1.18124e+06 1.09803e+06 -447954 23032.8 -416459 
277 1 28.102 26.5563 11.1797 4.87995 -541528 -133803 886705 -121870 56833.5 55315.5 
274 1 26.1896 28.1314 11.3054 0.405533 -116618 -169778 281416 -75518.3 -490634 677199 
275 1 26.3996 26.4717 13.2242 0.510571 -76943.1 270849 791872 -220937 -250030 -79879.3 
341 1 28.1244 26.4675 15.099 0.540033 -413420 -270668 -25132.5 43897.4 -143855 176124 
280 1 28.1261 28.2176 13.2539 0.379899 -400609 -438311 717073 -458635 -274328 361287 
338 1 26.2383 28.0842 15.1607 0.20786 -721852 -318530 318205 501756 -66104.3 134680 
279 1 29.8375 26.4491 13.0707 5.56644 -63261.3 173683 325974 -40946.7 -316121 -410481 
342 1 29.8401 28.2576 15.0639 0.363642 158378 631742 117473 -192403 -502766 132524 
284 1 31.6774 28.1913 13.1268 6.2516 142477 189602 750528 -308117 43218.3 -196441 
345 1 31.4778 26.2904 14.9299 5.00578 726709 282920 855033 158115 -182168 -102693 
349 1 32.3341 25.7832 12.5007 0.497188 80748.3 65242.3 123372 -74542.7 -155985 138554 
3102 1 35.6903 27.5081 14.282 0.459337 -710023 13208 284150 290286 141406 -12824.8 
346 1 33.4696 28.0835 14.9407 6.6071 -261488 403190 926830 369283 -90877.7 -6732.65 
350 1 34.0762 27.6093 12.3979 0.483157 -514244 309672 202305 -180797 -353444 -348015 
351 1 33.955 25.6636 14.3262 0.243121 -583881 -59407.4 178256 -175383 -523980 -296064 
289 1 24.2284 29.819 11.412 10.5082 -94073.9 493371 18389.9 -360672 267727 -17187.8 
292 1 24.2011 31.3896 13.38 11.0975 515383 1.33347e+06 1.30018e+06 34911.6 112877 -146668 
353 1 24.4155 29.5956 15.2586 15.8229 166952 1.01096e+06 1.26632e+06 485149 51198 -13086.4 
290 1 25.9325 31.546 11.4448 5.16735 402634 -198575 536350 -376967 61535.1 -455097 
293 1 27.9861 29.9021 11.3407 0.242851 -365602 -450224 40435 -447306 -331157 -1224.09 
291 1 26.1826 29.8187 13.3191 0.193024 123105 325005 676937 -83937.2 -60040.9 174416 
296 1 27.9367 31.5716 13.2957 0.296754 429295 -35166.4 71030.8 -301874 203003 400804 
357 1 27.9065 30.0309 15.2035 0.922704 -535493 -548918 -220405 -7283.63 -452134 323771 