ITEM: TIMESTEP
400000
ITEM: NUMBER OF ATOMS
5780
ITEM: BOX BOUNDS pp pp pp
7.1939442401279752e-01 7.1580605576002768e+01
7.1939442401279752e-01 7.1580605576002768e+01
5.0638533984506873e-01 7.1793614660170491e+01
ITEM: ATOMS id type x y z c_csym c_2[1] c_2[2] c_2[3] c_2[4] c_2[5] c_2[6] 
3 1 23.441 21.5231 2.30112 17.2944 86734.2 593538 570102 220979 739066 -103113 
69 1 25.2481 21.5581 4.01885 15.5553 140319 511427 -344470 -82185.5 271932 9902.1 
5 1 25.1368 21.631 0.580429 15.3972 576131 -60493.8 494012 55362.8 249292 -55599.8 
7 1 27.0063 21.5676 2.39234 16.4782 634722 56767.9 182023 197035 265203 -52949.4 
9 1 28.7843 21.5139 0.520994 18.309 1.09783e+06 540808 1.40415e+06 222806 35704.1 97039.9 
73 1 28.8773 21.6287 4.0546 15.6695 706671 -99220.8 861747 194489 219558 117156 
11 1 30.6111 21.3663 2.34218 13.2537 1.35586e+06 706272 1.39867e+06 81893 262674 -125633 
15 1 34.3772 21.4575 2.26078 18.6908 1.2435e+06 273690 1.45183e+06 -23944.4 28954.1 43326.8 
4 1 21.6891 23.3073 2.28228 15.9281 -157759 148192 388808 -82238.7 -270567 -17137.9 
81 1 21.499 25.2632 3.8776 15.4593 137558 1.12313e+06 1.14977e+06 -120602 308767 -192756 
19 1 23.4076 25.124 2.31269 0.446849 -501081 41898 -476008 -16958.1 59363.9 -212705 
8 1 25.298 23.4344 2.2768 0.322276 -315315 -1.05486e+06 -559859 80815.5 154253 -357925 
21 1 25.2194 25.2126 0.534417 0.164505 163247 261232 377390 -383971 338173 163606 
85 1 25.2338 25.1537 4.01947 0.17978 162907 621958 -107162 -144073 232768 -220509 
66 1 23.3463 23.4043 4.04693 0.503465 -159591 -470250 -415425 -491677 -348004 -117054 
23 1 27.077 25.1323 2.38411 0.405453 -272883 168075 -133953 -444844 271144 -78640.5 
12 1 28.9939 23.4118 2.36374 0.627306 -81325.6 36602.6 -476508 -31835.3 579333 438344 
25 1 28.7875 25.1366 0.529297 0.457912 242570 -91622.4 86833.4 127625 521659 189738 
6 1 27.07 23.3029 0.628703 0.434992 -125776 -271111 242540 -36313.2 520302 12483.8 
27 1 30.8062 25.1575 2.38674 0.367476 259680 12295.1 78687 -417576 140705 -307170 
16 1 32.5171 23.1732 2.27033 0.447287 308555 17220.4 80648.6 63483.1 -34668.3 304064 
10 1 30.6013 23.4062 0.621364 0.641814 -161254 246681 -276748 -64011.6 447323 62404.3 
29 1 32.5625 25.0457 0.583657 0.314078 -674562 -4871.37 -698939 -116814 -69950.6 -34808.9 
31 1 34.2837 25.015 2.33665 0.258216 -116061 191181 -268825 4440.43 -195159 262426 
78 1 34.3249 23.2529 4.06502 0.129704 631445 -476026 423018 -280482 -294068 190198 
20 1 21.5959 27.0872 2.17094 14.7736 198563 830423 645587 -221353 488.593 -62246.2 
97 1 21.3295 28.7338 3.9796 17.5392 932722 1.0061e+06 846889 298437 -180990 -160944 
24 1 25.2085 27.1278 2.27948 0.354959 372592 405709 141915 -259384 98201.2 -226303 
35 1 23.3319 28.8962 2.16416 0.262028 -48877.9 -303495 -129801 -213943 -360735 424651 
101 1 25.0764 28.8622 4.04048 0.301657 -28128.3 -187627 -647440 -136302 426713 -593983 
82 1 23.2929 27.0504 3.9744 0.264386 -574000 16071 -698321 -336576 497377 -345662 
28 1 28.849 27.0135 2.27392 0.197397 378508 544929 628394 -391047 364892 51338 
39 1 26.9966 28.8281 2.3079 0.119642 81971 -471822 184911 -673130 -142527 -5124.88 
43 1 30.6097 28.7906 2.34426 0.236185 405816 -18850.8 -113241 -189779 -243241 -517905 
32 1 32.5849 26.9517 2.30752 0.27037 -96430.8 231630 -126493 -281740 -212920 13941.4 
45 1 32.5627 28.7966 0.564577 0.177272 -130390 -250720 -142692 13221.9 -118567 88185.2 
26 1 30.7436 27.0272 0.612569 0.244862 18872.1 108074 -553772 -50580.8 69552.6 -506304 
47 1 34.3846 28.7866 2.34139 0.362736 -279762 -212036 -442261 105935 67363.2 72566.4 
2742 1 35.9996 26.9577 2.41474 0.349834 -422416 18478.4 58140.5 297039 100418 117700 
2757 1 36.0478 28.8497 0.564041 0.189222 -342715 156658 -238207 322563 337996 64004.5 
30 1 34.2976 26.9165 0.537352 0.0900567 -405970 -44240 -292494 186852 184248 69208.8 
36 1 21.4967 30.7734 2.33415 15.1036 244211 1.11913e+06 750384 -120503 -297525 183223 
49 1 21.6183 32.4439 0.526991 16.0607 -71369.8 739854 559244 -18151.8 -226889 329455 
40 1 25.1524 30.6952 2.22625 0.143427 296244 -247352 -179403 25282.3 104752 -32488.2 
51 1 23.3759 32.4913 2.21822 0.274749 -783717 -453059 -415321 -154018 -365722 565970 
98 1 23.3211 30.7453 3.96456 0.424767 149464 498108 -6191.82 121860 -148308 196003 
53 1 25.1893 32.4806 0.556636 0.138284 -28073.7 -220868 -349061 7221.42 115263 -139663 
117 1 25.2136 32.4811 3.95661 0.304246 256888 84966.3 -135275 -91473.1 114735 107762 
44 1 28.7357 30.552 2.29262 0.742286 -280194 151242 -570192 -52340.8 -86555.3 -102463 
57 1 28.9684 32.4673 0.532907 0.337661 22345.5 403711 198519 -249216 140220 -254844 
55 1 27.0388 32.5303 2.30706 0.239833 -17562.6 225680 -121482 -14533.1 27241 225208 
102 1 27.0807 30.5746 4.06023 0.409097 -190034 -29125.4 -324702 290683 662020 96307.6 
121 1 28.8797 32.4291 4.02749 0.273003 -241550 103768 -149246 -168431 -68482.3 -167751 
48 1 32.4517 30.6834 2.30467 0.219131 -289432 -54979.2 -439455 -431013 -183013 -128621 
59 1 30.6917 32.558 2.36009 0.508063 -261844 -199048 -473622 164207 -128392 -51860.9 
42 1 30.7439 30.602 0.520765 0.340594 -140083 16166.8 -88335.8 -49328.2 10116.5 -92180.5 
106 1 30.626 30.5875 4.03164 0.280409 -100293 -244870 186112 32586.9 49378.1 -508942 
2760 1 36.1098 30.697 2.31626 0.281473 -26471.3 -64279.8 -410933 152345 -400069 -119207 
63 1 34.2118 32.3619 2.24645 0.295284 -759537 -376900 -176383 -289474 -68392.4 -348102 
46 1 34.3455 30.6299 0.522291 0.222671 -964072 -886741 -532859 -234353 203486 -125989 
1281 1 21.475 36.0915 0.587256 18.6221 912895 1.48527e+06 1.39525e+06 73961.3 -130509 149325 
52 1 21.5439 34.2946 2.31566 17.4654 556567 1.04746e+06 961823 110084 19633.4 72267.9 
56 1 25.1189 34.2825 2.30437 0.187715 -80112.7 -438540 -326413 -247480 16360.3 244858 
1285 1 25.1083 36.125 0.560445 0.190565 130755 260783 -215583 -129599 -162576 -46935.5 
50 1 23.3661 34.2672 0.52646 0.0619621 -372389 -42062.6 -168612 -229932 -330147 420038 
60 1 28.866 34.3102 2.30141 0.113315 -192979 -156392 -170319 146323 -282489 4697.87 
1287 1 26.9741 36.0633 2.27611 0.199344 314453 267536 -47087.4 -4108.05 248494 48098.6 
1289 1 28.8292 36.1333 0.520703 0.131766 244471 330953 -48870.6 -150445 -48266.3 -56862 
54 1 27.0017 34.2422 0.552174 0.236567 619999 282158 174981 -220659 -191865 -156278 
64 1 32.5025 34.2615 2.25938 0.207828 -111689 111068 -152381 -500045 -390255 -221446 
122 1 30.609 34.2726 4.05991 0.149866 -258786 -610163 -292613 -116326 -225097 -337600 
58 1 30.7096 34.2755 0.523119 0.174646 -132973 197640 137246 -99474 17180.6 122755 
1295 1 34.2728 36.0466 2.32119 0.284151 365974 54492.3 360698 -81030.7 -182884 -16133.1 
2778 1 36.0008 34.1186 2.34544 0.893924 -57814.9 376803 300320 54947.7 76812.3 -114136 
126 1 34.1947 34.2562 4.0643 0.156718 251346 461454 -126321 104841 -38932.2 157576 
65 1 21.8413 21.4814 4.07714 30.1075 398848 497010 1.07957e+06 -48508.9 381262 -44131.7 
129 1 21.7492 21.6367 7.56801 28.2344 424401 238641 1.02367e+06 25968.7 -234618 241366 
67 1 23.6467 21.5433 5.86 13.9048 576896 113693 841332 -618519 196725 -91479.3 
71 1 26.8813 21.5167 5.84765 14.6623 1.08029e+06 224658 526641 328675 70689.6 -107182 
77 1 32.5418 21.4982 4.14039 18.2103 952948 295252 1.36751e+06 39723.4 -232392 294035 
75 1 30.7306 21.4892 6.09629 16.1527 1.30992e+06 685109 1.5736e+06 -32646.1 145964 -152710 
79 1 34.3421 21.4805 5.85399 17.1823 1.44495e+06 547198 1.13021e+06 -7350.42 -176969 64897 
68 1 21.5753 23.2869 5.83341 17.9307 849092 1.03684e+06 1.39341e+06 -163858 165174 189375 
145 1 21.5522 25.2646 7.53318 11.3517 679503 1.56684e+06 1.15026e+06 -188397 29279.3 244685 
72 1 25.209 23.3634 5.83611 0.259061 -219838 -242610 459097 -185860 112835 18887.5 
83 1 23.3597 25.1842 5.731 0.245369 305188 276896 753202 333356 355652 -312216 
149 1 25.3094 25.3042 7.63023 0.512601 -61886.2 141582 32226.8 -249106 430112 186998 
89 1 28.8781 25.2742 4.1165 0.355842 194664 151449 105056 -425046 10854.4 -372898 
70 1 27.1168 23.3399 4.08231 0.250378 126941 -502590 110452 246943 -34910.3 129713 
87 1 27.0395 25.2812 5.8884 0.242552 -123018 624877 186368 -248857 219744 72732.5 
76 1 28.9098 23.3406 5.92449 0.195014 906586 310345 192373 -26563 68691.2 -95154 
153 1 28.8364 25.17 7.62457 0.36698 130462 304137 123328 -79519.5 243306 112847 
134 1 27.0257 23.2861 7.60686 0.339144 -268277 -154949 235665 1693.7 359027 -432008 
74 1 30.8207 23.2876 4.14181 0.407441 284605 295460 695212 -275908 -45144.1 6067.94 
93 1 32.5567 25.0745 4.16827 0.17442 -728213 282143 -377344 -158484 -415873 -32672.6 
91 1 30.7907 25.1195 5.98038 0.343613 -241906 -285871 -235853 -48904.6 29958.5 115700 
80 1 32.519 23.3473 6.07831 0.699023 -198882 -633236 -181750 64114.5 -201346 227788 
2811 1 36.1019 25.0765 4.10917 0.221588 395571 703382 143482 -195906 310103 427445 
95 1 34.278 25.1478 5.81941 0.361035 -99760 681541 -69727.4 -30528.8 -29291.4 372927 
142 1 34.4402 23.3104 7.62287 0.411638 -219290 87087.7 66234.4 -419196 -552461 78557 
84 1 21.7152 27.0373 5.729 14.5117 -695581 -3170.37 -95081 -233512 442892 262487 
161 1 21.6713 28.8202 7.58249 15.2166 -175855 395474 172672 35778.4 -341175 -227062 
88 1 25.1606 27.055 5.86069 0.103949 371723 23010.1 93188.3 14464.4 388418 294657 
99 1 23.3082 28.825 5.6524 0.651271 -969073 -363788 -57588.2 -291887 784607 -164623 
165 1 25.1294 28.8737 7.60714 0.15247 13520.7 -106326 250738 -76819 102075 114828 
146 1 23.4134 27.0547 7.58419 0.24375 -332988 192166 270160 79947.1 -73559.5 273353 
105 1 28.7791 28.8395 4.16935 0.290847 -384487 -283117 61243.2 -126004 214228 166866 
86 1 27.0524 27.075 4.07476 0.117259 195287 9544.35 3800.95 -202740 -54678.1 172389 
92 1 28.8566 26.9732 5.8848 0.0974222 -117377 -296018 -279142 -499397 36000.8 -104114 
103 1 26.9608 28.891 5.86847 0.18657 -101151 -208691 -62212.7 144484 514003 39187.9 
109 1 32.4319 28.8375 4.07464 0.265399 -53287.1 -297325 240038 -68182 -197638 -227769 
90 1 30.6997 26.9106 4.18164 0.273894 66996.3 220534 41434 -474859 -166998 -175397 
107 1 30.65 28.7091 6.02845 0.584472 -298352 -319717 -106233 -186529 -28064 -192982 
96 1 32.4564 26.9695 5.8783 0.211782 -426129 -176976 -162178 18987.3 17322.9 1088.87 
2829 1 36.0858 28.8489 4.16284 0.185349 -435191 -381868 -606080 -102891 175775 -87520.2 
94 1 34.2497 27.0257 4.12376 0.308155 -193150 104027 -603560 -108223 190424 246909 
111 1 34.3232 28.7803 5.89571 0.178437 -44880.2 -574552 -766782 146120 463389 -81115.2 
113 1 21.4447 32.5772 4.20883 15.4675 770122 1.06034e+06 1.2926e+06 -86386 -256597 -211851 
100 1 21.4591 30.5077 5.76651 15.1102 682151 1.0997e+06 1.34087e+06 316167 100079 134513 
177 1 21.5388 32.4462 7.55876 16.4876 194960 362725 463499 74774.2 6228.67 485424 
104 1 25.2327 30.5991 5.74739 0.36348 16453.6 -133113 -65449.3 525513 20266.9 -217183 
115 1 23.3967 32.4082 5.85964 0.252743 338643 360855 36853.3 123748 -107400 155276 
162 1 23.383 30.6509 7.59933 0.257946 -645080 -280218 -217532 -88941.2 621249 552172 
181 1 25.2136 32.3977 7.61365 0.37045 -381477 -109268 261124 -154989 -252975 91506.6 
108 1 28.8449 30.627 5.95915 0.315277 403651 562094 412906 -270563 -140306 -104555 
119 1 27.0282 32.5631 5.8447 0.418456 -23203.3 32104.4 64001 -392375 -10726.8 44072.4 
125 1 32.425 32.3748 4.11992 0.237928 -855432 45987.3 -743613 -38825.8 -130435 -163495 
112 1 32.4414 30.5208 5.85782 0.350287 -878626 -421349 -1.10868e+06 -185354 -71079.7 228915 
123 1 30.6718 32.431 5.76837 0.384583 104834 231035 35478.1 -146544 29434.8 146461 
170 1 30.7113 30.6171 7.6215 0.219686 179248 140699 -249241 -76034.6 96.1558 -244847 
2847 1 36.0487 32.3648 4.14983 0.301442 827888 -335234 -22394.7 251971 5728.09 -21920.2 
110 1 34.1995 30.5765 4.10872 0.172512 -310532 -279969 -30760.7 -25912.2 103991 -43718.3 
127 1 34.1226 32.4209 5.88537 0.474412 87540.1 -138344 -421950 -90575.6 -37694.8 362527 
2919 1 36.0957 32.4961 7.59225 0.144488 -139920 -218284 -346146 147651 293712 537680 
174 1 34.1753 30.6284 7.49321 1.11544 -26000.5 -211713 -430095 -272822 -121387 22369 
116 1 21.5833 34.3158 5.93114 16.3186 322122 334902 339987 -49283.3 -111072 -381197 
114 1 23.3645 34.2822 4.12028 0.148963 -57921.3 737806 266629 106402 -67999.4 9791 
120 1 25.1453 34.309 5.83712 0.143541 -233139 482592 70670.5 222491 -228719 90946.9 
178 1 23.3857 34.2791 7.62976 0.125604 -518743 106795 -782240 -51757 -136298 79720.5 
1433 1 28.8847 36.1381 7.56958 0.339423 -101880 206115 -297688 402166 -75041.4 -101350 
1361 1 28.8787 36.0617 4.12587 0.525699 -163919 -5819.29 -118700 -156291 87407.4 180113 
118 1 27.0288 34.3599 4.11041 0.217242 -62556.3 -118371 -460588 -139758 -338626 289592 
124 1 28.751 34.2397 5.7937 0.459341 -178050 -350455 -221744 -389994 -391271 295382 
1365 1 32.3646 36.0575 4.08968 0.442844 262626 32452.8 -18977.9 -143386 81435 30602.2 
128 1 32.4065 34.3072 5.91934 0.207182 -187454 -55582.6 -306669 68188.3 386637 330512 
186 1 30.6545 34.3958 7.56404 0.29633 -334994 -253195 -174916 392162 327733 198129 
4242 1 36.1466 36.1361 4.09567 0.283558 94546.5 212773 489209 244507 -56390.6 -39244.4 
1367 1 34.3044 36.0938 5.83173 0.112882 275074 322450 245768 108700 45173.5 -113263 
2850 1 36.0762 34.2214 5.82607 0.233671 422892 294861 -196555 270933 -44535.6 76920.3 
193 1 21.6482 21.7881 11.0591 30.2459 540535 590627 1.3526e+06 -867.671 -7121.89 476625 
133 1 25.3358 21.4773 7.72961 10.3077 206745 -130398 98761.2 -260031 647654 -322713 
131 1 23.4972 21.5757 9.29084 16.9519 229240 -180716 98768.7 -372136 71812.4 117571 
137 1 28.8297 21.6301 7.70769 15.4521 767312 -232063 483100 276183 305428 -107845 
135 1 27.1324 21.4064 9.57215 16.9584 1.19764e+06 867065 1.08713e+06 -114862 91677.9 -197637 
139 1 30.6551 21.5416 9.53508 10.8478 771075 -209421 903990 39015.5 -110740 -108051 
141 1 32.6575 21.5885 7.76985 15.4205 866291 -111318 537190 -207976 -275701 118903 
143 1 34.3716 21.6224 9.55332 15.2884 756818 176379 560740 -218820 -581261 -205945 
132 1 21.5205 23.4119 9.2974 17.6206 832232 805842 1.02953e+06 -88647.2 16231.2 313745 
209 1 21.6474 25.2536 11.1664 17.0932 536255 652840 541199 -164620 26395.4 671806 
130 1 23.5163 23.3476 7.64536 0.408333 128299 -161611 -246017 -327489 -45094.7 -1678.01 
136 1 25.2764 23.3288 9.32381 0.409318 -313682 -85343.3 -413647 -437012 386277 -52187.9 
147 1 23.4106 25.2211 9.28137 0.323501 507594 417436 191535 -94928.2 180301 174030 
194 1 23.4919 23.3986 11.0069 0.835386 -461785 -604179 -45899.2 -29023.6 123609 519755 
151 1 27.1132 25.1069 9.39135 0.585745 -56166 908143 37482.1 -49016 -441253 -27482.5 
140 1 28.8851 23.3093 9.47245 0.242181 227808 -119666 -8367.32 437769 -104444 -372666 
217 1 28.7054 25.2393 11.1825 0.810462 510152 228198 -277164 90229.3 -293232 10211.5 
138 1 30.7225 23.3871 7.78542 0.165906 -346460 38320.6 -648823 -97225 -86660.9 189312 
157 1 32.5804 25.2072 7.6721 0.323003 110237 418560 -182655 14840.7 -373416 -197029 
155 1 30.7229 25.2603 9.53333 0.420173 114541 266442 -363936 378091 -719756 120621 
144 1 32.3767 23.3334 9.5073 0.574186 213369 37063.1 279968 70901.4 -507418 -343572 
159 1 34.351 25.2022 9.46474 0.271821 150630 -23840.6 351488 -420722 -369229 -17792.5 
148 1 21.4894 27.0171 9.48446 16.6039 691208 917579 1.07131e+06 -66698.3 -257929 141386 
225 1 21.5491 28.868 11.143 17.2292 -165724 196184 328101 -344803 397534 -390127 
152 1 25.2076 27.0873 9.44734 0.0989171 190180 211222 -279370 -567604 376414 -87258 
210 1 23.3896 27.063 11.1714 0.142611 -429137 382044 344904 -315383 113516 103971 
163 1 23.2439 28.9546 9.41764 0.747251 -812595 -411368 -722108 285080 -6971.46 13422.7 
150 1 26.991 27.0785 7.73348 0.267615 82729.5 -153553 266164 -482707 283961 -298059 
169 1 28.867 28.7761 7.74665 0.284912 225723 254865 145564 -183923 231389 170847 
156 1 28.9067 27.0653 9.55097 0.441581 333015 127442 92215.5 -83210.5 -41035.4 547718 
167 1 26.8972 28.8888 9.42826 0.355079 250544 42926.7 -160312 -286161 38361.4 -132793 
154 1 30.6631 26.9264 7.70923 0.269354 237679 -316878 -213453 92128.5 148783 445317 
173 1 32.512 28.8094 7.65261 0.172946 -470427 -592528 -378101 123836 -130926 424619 
171 1 30.6751 28.8926 9.49953 0.197786 94166 -347525 -383025 -100195 -336596 -275076 
160 1 32.5816 27.1379 9.48692 0.578367 -537826 101135 -861567 -138281 -577012 206461 
158 1 34.3783 27.1811 7.75082 1.007 -505584 -35871.3 -361457 -122193 -339088 297767 
175 1 34.3483 28.8836 9.53098 0.586981 -421866 -795213 -694630 -81560.2 -463649 -605693 
2973 1 36.0706 28.9556 11.1504 0.373252 -898547 14975.5 -922154 312747 -411851 -266659 
222 1 34.1478 27.0352 11.1771 0.582868 -624568 -253704 -1.28295e+06 230337 -437631 262774 
2886 1 36.0043 26.9052 9.48752 0.974692 -953219 -612207 -871278 -116128 -491084 301704 
164 1 21.6357 30.6887 9.22086 14.1366 -832315 -206543 279869 391859 281539 288396 
241 1 21.4966 32.6014 11.1188 15.8916 435168 1.4194e+06 1.11156e+06 -152979 -1322.6 433261 
168 1 25.063 30.6995 9.54375 0.590654 -139758 -43349.8 -73738 -8470.85 30066.8 -110309 
179 1 23.2888 32.5141 9.38663 0.121508 -1.02542e+06 -380641 -194097 -36529.1 -435361 66472.1 
245 1 24.9187 32.5157 11.1884 0.849077 -65176 -68011.5 -551028 -149143 -106873 -126112 
166 1 26.9359 30.6553 7.66363 0.21885 211290 -188091 138269 96379 -117462 -116982 
185 1 28.7154 32.5592 7.68842 0.487443 266779 52135 -561224 42910.9 -339809 7253.06 
172 1 28.8432 30.7542 9.40502 0.286265 -113574 -33965.3 -73521.4 -19115.7 -266453 293356 
183 1 26.9571 32.4734 9.4192 0.179191 56109.3 -498849 -897104 -79013.8 -95782 -71256 
230 1 26.9608 30.7566 11.1801 0.291778 -61100.4 -126940 -351125 33693.1 -157817 -146023 
187 1 30.6087 32.5168 9.30935 0.292898 -74312.4 157540 9795.9 -150645 53824.7 141862 
176 1 32.5596 30.692 9.41533 0.418639 -448022 369093 -484034 -38838.9 -233938 -710.037 
253 1 32.4466 32.56 11.1798 0.136141 310334 537052 458326 210978 -16720.6 -45834.1 
189 1 32.4242 32.5523 7.67458 0.431095 -435377 -335889 -653427 -19323 402352 6468.62 
234 1 30.6527 30.6771 11.0589 0.82181 186728 -94440 83242 315.716 -203440 -391257 
2991 1 36.0484 32.5309 11.1877 0.137839 -1904.61 153347 -274740 175563 -245397 -42031 
2904 1 36.0991 30.8174 9.39138 0.451516 -74534.5 -584542 -152423 107825 116623 88229.9 
191 1 34.32 32.5334 9.38037 0.147116 -377766 -106205 48919.1 181955 -129277 285480 
238 1 34.1649 30.6646 11.1764 0.45828 -352739 -199830 -530748 114354 -501942 -376306 
180 1 21.549 34.2613 9.26406 15.4725 -139067 585484 548675 187768 101111 112122 
1427 1 23.3479 36.103 9.35084 0.189106 -317134 -954225 -295688 177501 377158 466657 
184 1 25.043 34.3479 9.41532 0.381171 -901387 -76790.3 -528546 42829.2 5327.96 201887 
242 1 23.2446 34.4578 11.1025 0.871091 -597139 -675084 -515881 566520 169323 -125906 
1505 1 28.8577 36.0856 11.1618 0.162071 62274 112461 -605219 421917 11908.8 15338.3 
1431 1 26.9184 36.0689 9.33633 0.327725 -84798.4 -225417 -176286 233176 -241244 -1411.85 
182 1 26.8278 34.2582 7.66893 0.68769 33123 -458874 -370611 122634 -199795 -353335 
188 1 28.7641 34.3023 9.3859 0.0765771 43579.1 -271627 -188292 -65388.1 -24875.1 -410216 
246 1 26.9041 34.2161 11.1119 0.578053 26454.1 -51522.9 -164248 529364 297719 -47309.2 
1509 1 32.4291 36.0937 11.1837 0.299597 -55292.5 -79675.2 -167441 249992 256179 324803 
250 1 30.5963 34.3128 11.1762 0.107675 56120.3 -239273 386144 160312 -60338.8 129624 
192 1 32.5056 34.3371 9.30262 0.309881 12572.3 -110390 -142589 -59419.6 133328 -393600 
1435 1 30.5768 36.1007 9.40724 0.282588 -539209 -169259 -232992 301768 70878 88538 
1439 1 34.2949 36.1361 9.39883 0.117784 91972.8 -273104 -203182 8475.93 -242153 45861.5 
190 1 34.2945 34.3156 7.64081 0.111171 -84902.2 77902.8 -379593 -81035.5 304007 182425 
254 1 34.3318 34.381 11.1619 0.133912 -29231.9 5493.07 77127.2 71242 101317 131403 
2922 1 36.1203 34.3614 9.43583 0.125939 -404534 -236678 -3686.13 -259337 112175 -2835.15 
197 1 25.1978 21.6738 11.2109 16.3857 53370.4 -374317 767404 -51943.8 180623 57423.6 
195 1 23.3926 21.8675 12.922 14.5942 -558774 -255397 -102627 -16149.9 334039 316614 
261 1 25.0381 21.7098 14.7438 13.6032 568474 -12511.2 289256 295533 -37627 -243184 
201 1 28.9079 21.5311 11.3724 10.7247 451271 128836 1.17431e+06 -293199 -109346 2739.45 
199 1 26.9607 21.4973 13.1202 15.9087 936947 734509 987793 -103900 -226609 167564 
265 1 28.8129 21.6355 14.6752 14.9232 33633.6 -157305 -42699 40754.1 -302300 185359 
205 1 32.469 21.4467 11.3201 11.5143 1.03158e+06 779223 983378 6308.15 -102116 -108366 
203 1 30.7563 21.492 13.1132 9.79744 114753 358524 51904.2 -92108 -423109 -172624 
269 1 32.4547 21.5178 14.7132 11.6518 357132 368395 333394 5646.48 -341520 -208515 
207 1 34.2412 21.6236 13.0511 15.3257 484746 101799 418161 73301.8 17872.6 -88762.2 
3009 1 36.1275 21.6082 14.7529 16.391 792521 116959 673574 -131043 189695 253241 
2937 1 36.1386 21.5471 11.2554 11.5905 437697 71283.9 569867 -340645 -372171 -322494 
196 1 21.7163 23.6305 12.9632 15.0651 -26166 -459553 371269 -77930 -63994.7 119544 
213 1 25.2323 25.2474 11.2097 0.154978 581966 55452.8 47844.9 -312297 -1997.92 582500 
200 1 25.1429 23.5582 12.92 0.804522 -343700 -753254 -88904 -283649 353007 331082 
211 1 23.4522 25.2843 13.0411 0.274646 -1.28661e+06 -680589 155209 -582710 64844 157308 
198 1 27.0189 23.2508 11.3513 0.87197 32668.9 42747.6 565265 -394841 136737 -41683.6 
215 1 26.9719 25.2741 13.0669 0.133461 -577660 -240964 -303706 -212388 -419775 297263 
204 1 28.811 23.4615 13.0913 0.341953 2548.73 -253916 -601884 -36903.7 -177511 -39268 
281 1 28.7046 25.2259 14.7596 0.439906 -766726 -491407 -1.33672e+06 -136718 -520254 -158883 
221 1 32.3075 25.2372 11.2408 0.703015 -321285 137374 -652161 53826.2 -698485 122037 
202 1 30.5699 23.3013 11.2687 0.386521 -27022.1 27457.1 117905 -558214 -61238.6 -197957 
219 1 30.6004 25.2848 13.0284 0.18143 -207068 -192379 130379 193733 298639 389230 
208 1 32.4872 23.4233 12.9612 0.229586 -158621 -109757 61769.5 -1842.13 261037 153215 
285 1 32.4708 25.2644 14.7637 0.189259 221761 164346 207765 -222022 -568.369 -82798 
266 1 30.6884 23.4287 14.6713 0.402589 29233.6 -445987 -333909 -127408 -236488 -122644 
206 1 34.3079 23.4073 11.2474 0.134451 798808 -23295 -84923.4 -60074.1 138099 -292277 
223 1 34.2612 25.2336 12.9448 0.223505 110339 268833 -26088.8 -277896 483139 -53712.3 
2955 1 36.0712 25.2736 11.3167 0.455955 -73954.2 226091 -105956 -245010 266896 408714 
212 1 21.5788 27.0897 12.935 16.4447 261023 1.22819e+06 1.13325e+06 -172075 -41227.5 -63264.8 
229 1 25.1686 28.8109 11.2731 0.296544 214853 -637693 -331388 75107.4 276730 -564124 
216 1 25.1219 27.0094 13.0802 0.305087 -90435.7 -110502 34720.6 -243631 78056.2 430197 
227 1 23.3224 28.8728 13.0515 0.234003 -375852 -214543 204812 -436698 125907 329474 
233 1 28.7262 28.9936 11.2143 0.462151 382951 223398 391210 19348.8 160275 -234574 
214 1 26.9677 27.0722 11.3266 0.299957 -110146 -7619.29 401578 203161 -186244 220808 
231 1 27.0123 28.9134 13.0753 0.372433 213370 57603.6 -400865 -65103.3 -237708 -267738 
220 1 28.8187 26.9547 13.0127 0.71985 -383091 19441.4 6412.1 91483.9 -101884 27091.3 
237 1 32.4043 28.8778 11.3004 0.346094 -583046 -651092 -186967 -178434 -238985 52458.8 
218 1 30.68 27.1313 11.2919 0.289481 -110446 -173888 -299919 -114347 -350583 196195 
235 1 30.5836 28.9706 13.0789 0.290044 415318 -5665.36 -219891 42015.2 398405 -323083 
224 1 32.4746 27.092 13.0285 0.114843 -69278 -33910 -552661 -146779 166106 235956 
3045 1 36.0323 28.9325 14.7331 0.288501 -130964 -555794 -715237 86018.6 -312563 -96505.9 
2958 1 35.9723 27.164 13.0149 0.613284 -59231.1 -173338 -79995.7 279279 238873 -333947 
239 1 34.2775 28.8525 13.0231 0.160813 -818283 -350618 16508 152459 -406803 -136993 
228 1 21.4694 30.6375 12.8411 16.851 176243 954707 539233 60771.2 338647 -357912 
305 1 21.4308 32.39 14.706 14.6526 120060 1.0866e+06 1.37085e+06 686513 76781.7 143005 
226 1 23.263 30.6034 11.2182 0.416981 -1.24686e+06 -225509 -870812 -613972 220428 -291776 
232 1 25.0557 30.5993 12.8732 0.768945 25472.3 -220456 -39490.7 -342321 -311845 -204134 
243 1 23.2406 32.5441 12.9181 0.277996 -75830.9 948370 -32274.8 63683.1 265487 67816 
309 1 25.0927 32.5891 14.647 0.518718 72732.5 582611 493798 253778 308465 187037 
290 1 23.1859 30.8021 14.7614 0.395919 -80630.9 -172031 380791 357101 -182399 -194653 
249 1 28.7549 32.5447 11.2261 0.237979 58210.6 -99512.3 176218 -124839 -122220 135951 
236 1 28.7475 30.7785 12.9904 0.177174 163712 -398145 -253220 -28376.3 -496891 -207824 
247 1 26.83 32.4879 12.93 0.362911 -34188.6 80674.5 -169020 384930 431578 -96672.8 
313 1 28.7434 32.5478 14.6831 0.172308 475101 -266482 -164418 369654 169296 45875.6 
251 1 30.6669 32.5083 12.9942 0.247236 352066 396771 429436 213993 209354 338957 
240 1 32.4368 30.7458 13.0711 0.305863 -17122.1 54013.2 244736 -65506.6 76973.3 -197270 
298 1 30.5186 30.6948 14.753 0.316949 -224551 -246544 -804033 -134532 422291 -486156 
2976 1 36.052 30.6384 12.8988 0.161313 106780 -951303 -636373 -130529 -975.434 -607791 
302 1 34.2807 30.6917 14.7558 0.0762731 -613464 -536671 22472.5 1516.28 -63102.2 -228176 
3063 1 36.0632 32.3719 14.5517 1.28178 -482095 -397178 -436668 -19191.6 157898 -5378.75 
255 1 34.2243 32.513 12.9526 0.199964 -327975 135678 -470437 -38108.1 -243467 -118574 
1497 1 21.5053 36.0499 11.2477 10.5185 -184914 610400 901871 501246 -39631.4 199757 
244 1 21.4835 34.4187 13.1167 14.5897 351842 985416 1.22286e+06 -188608 -154858 293387 
1501 1 25.2662 36.1421 11.2447 0.74981 -2798.56 -863582 -753893 102738 372787 -46310.3 
1499 1 23.3868 36.0063 12.9544 0.851311 -795275 -604898 -232150 -185890 -155376 77352.2 
248 1 25.2182 34.4128 12.9478 0.56972 -337721 -817026 -375077 418114 52028.9 454932 
1503 1 27.0513 36.0742 13.0388 0.43297 -337597 -386361 -81026.1 -308896 -130591 465440 
252 1 28.7925 34.3397 13.0173 0.243542 135875 -232769 -116143 485173 89762.7 223900 
310 1 26.9467 34.3834 14.7415 0.202696 205125 -353138 -464946 174579 -144818 453006 
314 1 30.599 34.4476 14.7037 0.47074 -39230.8 854157 270493 -68097.9 24213.2 -66387.1 
256 1 32.4869 34.4302 12.9991 0.2851 510315 230247 167095 23766.9 72695.5 92463.3 
2994 1 36.1013 34.4184 13.0227 0.470447 62209.1 76347.4 79224.2 -84407.6 -12314.2 -177410 
257 1 21.8629 21.8638 14.782 24.771 106422 304738 645777 -394109 222980 -108045 
259 1 23.4902 21.691 16.6723 15.2194 -453375 -93652.2 -88084.9 -256936 414862 -132615 
263 1 26.9833 21.5213 16.4088 10.1616 1.19232e+06 270913 1.32114e+06 21689 -11398.6 427332 
329 1 28.8541 21.5433 18.3047 11.7052 511610 196293 485657 -299785 178868 205129 
267 1 30.4979 21.6069 16.4865 14.7407 338435 -99609.2 550830 324158 -31958.9 -144377 
333 1 32.3195 21.4901 18.2811 16.7866 1.48883e+06 506108 1.30349e+06 180348 194873 -51790.8 
271 1 34.3284 21.5726 16.5999 16.8863 1.12761e+06 95570.4 1.07454e+06 191573 -31670.2 -243416 
273 1 21.6614 25.1065 14.8494 13.9744 -249715 734208 784353 312481 -53843.6 -491795 
260 1 21.6505 23.3858 16.8055 13.8549 251409 -47574.5 870685 90315.3 -245145 130640 
258 1 23.4776 23.5732 14.8924 0.470674 -1.52344e+06 -1.72179e+06 16246.1 40569.9 -302655 -112274 
277 1 25.1655 25.3675 14.9098 0.446396 -14144.9 -190931 -203528 -269686 -177594 282161 
264 1 25.2845 23.406 16.5801 0.348755 -571021 -152738 -609959 -239487 -37439.1 71887.2 
275 1 23.3671 25.2678 16.7136 0.327487 -83867 90963.9 -309663 -73423 46103.2 -322848 
262 1 27.0054 23.4391 14.8434 0.282149 -273104 -349024 -298604 -264390 296885 246809 
279 1 27.03 25.2668 16.6038 0.124303 -93905.5 496493 -261045 -173518 -15986.3 -168263 
268 1 28.7843 23.3224 16.5168 0.307459 -227645 -414155 206604 192571 -565839 121032 
283 1 30.4752 25.1918 16.4129 1.00655 76393.4 140993 314230 13651.8 -236427 -199634 
272 1 32.4704 23.273 16.4669 0.332703 227147 -50693 -43009.5 -102775 9810.57 -346366 
330 1 30.5881 23.3316 18.2799 0.293643 227297 -137983 75701.2 -392477 22497.6 154473 
349 1 32.4371 25.0434 18.24 0.456088 34784.2 162284 454710 90065.5 475547 51299.7 
270 1 34.2805 23.4157 14.7791 0.142122 437203 97804 123633 78209.5 97217.2 -362364 
3027 1 36.1196 25.2713 14.7926 0.339052 303251 272564 479357 -177667 84190.3 -154233 
287 1 34.2937 25.0967 16.6166 0.602611 -332110 -601294 -908053 134942 -27815.2 -395024 
3099 1 36.1188 25.3652 18.2069 1.21557 -191375 -114.262 -122666 275147 -77421 -337716 
334 1 34.247 23.3175 18.2969 0.289349 591695 -258745 -180286 421333 91580.8 -370021 
289 1 21.4992 28.9474 14.8121 16.7663 288467 1.19607e+06 1.23399e+06 -80969 26964.4 123427 
276 1 21.5647 27.1245 16.6302 16.5012 -113646 987864 659736 -193695 -63848.8 417667 
274 1 23.2332 27.073 14.8174 0.467813 -144331 317238 72360.9 70260.4 332262 -20666.4 
293 1 25.0998 28.9892 14.8885 0.415865 279779 376788 293497 -415459 35468.5 107322 
291 1 23.2837 28.9317 16.6188 0.12386 -332279 286587 321697 -434769 -95358 131446 
280 1 25.1713 27.1569 16.6511 0.0966663 516423 -114303 126665 -140593 154668 -99629.4 
278 1 27.0268 27.1385 14.8237 0.18637 -24004 -235784 -58388.1 -198603 -122115 26583.7 
297 1 28.768 28.9291 14.7752 0.159244 -924736 -690065 -761800 -362819 -111540 -208229 
295 1 27.0021 28.8971 16.6141 0.163529 521686 22901.1 246803 -498042 27020.6 85073.3 
284 1 28.9037 27.0785 16.4838 0.54973 -463338 -331107 -42220.6 -71044.2 37976.2 224683 
301 1 32.4771 28.8748 14.8649 0.156219 377191 230959 440562 -332325 48440.7 -210490 
365 1 32.5629 28.8134 18.1706 0.749044 -539854 -43021.3 -909111 -113015 -130624 -258786 
282 1 30.6327 27.1626 14.7783 0.410343 -153484 -26886.1 -562183 -31792.1 309905 24581.3 
288 1 32.4067 26.9623 16.6119 0.367044 -74479.5 -87730.6 -698145 6012.06 -46775.4 -368008 
299 1 30.5862 28.8582 16.6022 0.36449 -345882 -334401 -207150 -104488 99792.9 -381856 
3030 1 36.1034 27.1011 16.4325 0.488985 -747846 -474247 -1.02014e+06 245936 58075.5 45600.9 
286 1 34.3043 26.9986 14.8658 0.377416 -602892 91324.3 -239812 -95651 -294752 -153053 
303 1 34.3625 28.8201 16.5993 0.424203 -533410 -84462 -658761 363531 475849 -139501 
350 1 34.2705 26.9185 18.1926 0.535335 -573598 -437173 -281596 701507 -50227.6 -178350 
292 1 21.4236 30.7664 16.7318 17.0727 560345 1.05408e+06 829841 -123775 -256881 -148024 