ITEM: TIMESTEP
8600000
ITEM: NUMBER OF ATOMS
5780
ITEM: BOX BOUNDS pp pp pp
2.1412802038321974e+00 7.0158719796183348e+01
2.1412802038321974e+00 7.0158719796183348e+01
-2.5364004250142194e+00 7.4836400425029765e+01
ITEM: ATOMS id type x y z c_csym c_2[1] c_2[2] c_2[3] c_2[4] c_2[5] c_2[6] 
3 1 23.7911 22.3904 -0.540614 16.1625 91315.4 286520 566573 -195135 -352767 -14459.9 
4 1 22.0081 24.1426 -0.651658 18.1335 419678 212774 913315 -172677 269426 13155.6 
2 1 23.8042 24.186 -2.46101 0.254522 -979009 -780113 909424 -23553.4 -118402 186612 
1 1 22.195 22.4616 -2.50769 30.4126 534017 384169 1.01488e+06 -347737 -49902.6 3609.74 
7 1 27.1645 22.3093 -0.568132 16.7023 879058 -12460.6 865947 -217424 -23740.2 283291 
8 1 25.4845 24.1664 -0.556135 0.222538 21374.8 -61312.1 251562 61156.7 375436 96501 
69 1 25.3218 22.2642 1.31049 16.4258 810384 88666 899533 647191 -130081 70583.5 
6 1 27.264 24.0666 -2.33546 0.960354 -947249 -821096 559044 -702082 -88142.9 217679 
11 1 30.6979 22.2122 -0.592321 16.7839 1.03697e+06 110779 1.48851e+06 -90083.6 -47473.3 -42669.9 
12 1 28.9681 23.9347 -0.603166 0.195204 -462966 -843364 106213 -283238 -556518 340663 
73 1 28.954 22.2401 1.28293 17.5655 912671 197988 1.31408e+06 56347.2 136013 172178 
74 1 30.7577 23.9288 1.30746 0.188853 -424500 -732255 486674 179135 281786 -107611 
9 1 28.8424 22.189 -2.47452 16.0439 1.53898e+06 506164 1.56645e+06 280183 230223 -103273 
2724 1 36.0663 23.8738 -0.574543 0.258523 1.01787e+06 141849 342623 261074 49230.5 -71252.1 
16 1 32.5074 23.8275 -0.468645 0.769804 60298.2 -329717 361340 -425922 116875 665634 
15 1 34.267 21.9632 -0.704196 19.0001 1.75385e+06 868636 1.73239e+06 57946.2 176650 315031 
77 1 32.5623 22.2437 1.28343 16.44 921426 -652835 763182 -352306 -6152.91 402614 
14 1 34.2943 23.8167 -2.45485 0.323673 429332 127514 1.01745e+06 613703 -158346 -22366.6 
19 1 23.7076 25.917 -0.486487 0.424105 -930935 -276978 -151300 373126 171865 -274181 
20 1 22.0309 27.6125 -0.601137 14.5642 -136653 522424 627431 180945 260108 -560198 
81 1 22.0606 25.7809 1.27426 15.3314 -199227 1.08612e+06 534516 -83040.2 439102 -52832.5 
17 1 22.0923 25.8026 -2.44722 15.8865 -33864.1 619827 1.05186e+06 414699 -148438 201729 
18 1 23.729 27.7093 -2.4692 0.371344 -108928 446725 919192 -251996 275801 35489.2 
23 1 27.3661 25.9452 -0.587726 0.490883 -42440.2 269976 370265 -416191 37662.6 -270822 
24 1 25.541 27.7603 -0.490734 0.658454 -376001 -274973 141008 -222619 37788.2 -252944 
86 1 27.4146 27.6964 1.29473 0.750419 -120259 -832140 -316301 -345373 21940.5 -569388 
21 1 25.5494 25.9354 -2.40593 0.268523 173165 273324 813609 -376856 -133737 398272 
22 1 27.3398 27.5977 -2.5349 0.203269 42226.7 -477922 111758 -430674 33233.6 -59815.5 
27 1 30.7481 25.6264 -0.667743 0.349358 10736.9 134742 554749 -154690 -80677.2 19299.8 
28 1 29.1523 27.5445 -0.565786 0.263946 -808433 -313030 482904 -502844 13508.7 188493 
25 1 29.0033 25.6066 -2.47933 0.740426 -419038 199840 444500 -603967 22867.3 144036 
89 1 29.1361 25.736 1.3111 0.217751 -7132.66 19115.6 888558 -250266 216461 104648 
90 1 30.772 27.4553 1.32954 0.299998 -314467 -25752.5 534684 -324734 18194.4 -16334.2 
32 1 32.5379 27.3639 -0.532172 0.336506 204092 117163 846405 29215.4 170831 159783 
31 1 34.2521 25.5965 -0.617912 0.324726 329079 289817 875051 230940 -59501 -245426 
94 1 34.4851 27.2977 1.32236 0.56884 18304.4 -151382 677343 170017 79875.9 21362.4 
2742 1 36.1351 27.3684 -0.605277 0.199045 -57598.3 -164685 105113 351527 -39235.4 -127115 
30 1 34.3151 27.5057 -2.4963 0.679517 -390246 -303518 196020 234471 -115346 -229554 
35 1 23.7273 29.3707 -0.565376 0.442797 -1.37768e+06 -1.16963e+06 202207 376036 134188 -456986 
36 1 21.902 30.8064 -0.45947 14.7881 -198729 876817 1.19891e+06 640793 -133654 -296184 
34 1 23.7359 30.9816 -2.48497 0.241381 -865610 -505530 530863 -17969.3 -259435 -9957.31 
39 1 27.3522 29.274 -0.611268 0.173311 -877937 -919015 -125535 -495770 241741 -111068 
40 1 25.5032 30.9959 -0.652339 0.11474 -382371 -133032 77614 -237915 -282002 37700.9 
102 1 27.2724 30.9582 1.21265 0.377791 -720880 -488255 660074 -91974.3 46293.8 -207134 
43 1 30.8598 29.2528 -0.60848 0.134849 -340717 -110638 792055 -249552 90200.6 275462 
44 1 29.1069 30.9718 -0.656781 0.252322 -331180 -681525 230455 -197904 180409 -106395 
42 1 30.9486 31.0065 -2.47556 0.315843 -187244 -119217 33861.2 -68161.1 99552.2 -211515 
41 1 29.0697 29.3425 -2.48923 0.241075 -185680 -46690.3 -75714.7 -316422 -15917.2 -294703 
47 1 34.391 29.0332 -0.598393 0.384859 -310590 -96930.2 176680 706237 -483991 -381109 
48 1 32.7399 30.8425 -0.668255 0.717065 -115960 -437703 424990 -232026 -231512 -492597 
2829 1 36.1333 29.1417 1.21849 0.466084 -215637 -512644 504458 583475 -245403 -107374 
45 1 32.6515 29.203 -2.43647 0.460501 -757892 -799203 -20001 487213 86704.3 -361229 
51 1 23.6462 32.6561 -0.60217 0.256622 -496329 8792.29 936339 -395509 -143416 -267926 
52 1 21.8123 34.3437 -0.695121 18.4652 751310 1.42743e+06 1.64512e+06 252245 122598 105125 
1283 1 23.7385 36.0944 -0.572455 0.279793 -537442 -512439 125338 335696 285434 219202 
113 1 21.7551 32.6218 1.27631 20.5066 1.17612e+06 1.53251e+06 1.67574e+06 -100149 108562 -352406 
50 1 23.7012 34.3841 -2.50845 0.215199 -283447 13422.9 942018 -460183 -114966 -17029.8 
1357 1 25.4447 36.041 1.33101 0.279035 -502790 -380717 773581 -50866.9 -2113.54 -9732.54 
55 1 27.3162 32.7492 -0.738918 0.522262 -337491 -96004.6 -174991 137953 160609 -240048 
56 1 25.3778 34.2446 -0.508602 1.15073 -435089 -429450 254595 -29557.2 -13688.8 33565.3 
1287 1 27.2563 36.1125 -0.586579 0.14907 290916 19469.3 619423 472230 -14166.6 -92290 
118 1 27.3455 34.3939 1.27828 0.219176 -388409 -450999 535541 321170 9161.7 -73301.3 
59 1 30.9083 32.6292 -0.556101 0.545339 -10995.5 -109839 -93796.8 -347407 19997.7 -477544 
60 1 29.1456 34.5034 -0.609608 0.26216 -5653.43 113634 141547 -77503.6 -129027 -226532 
122 1 30.8807 34.3922 1.17867 0.595242 -447427 -512652 55782.2 -143496 82394.7 -124703 
121 1 29.026 32.7345 1.29612 0.358202 -234203 -229850 821085 360457 20385.7 -8496.62 
57 1 29.0683 32.7493 -2.46569 0.395103 204736 240389 379231 -46688.6 403524 -352075 
2778 1 36.0691 34.4097 -0.614177 0.216584 -864031 -620794 -564845 -179541 92492.4 -154929 
63 1 34.4464 32.5933 -0.56694 0.44982 -790903 -319873 90489.7 -357456 128858 -141334 
64 1 32.6447 34.4564 -0.604074 0.185559 -263093 -672363 -454870 -454365 -44107.4 -300339 
125 1 32.6939 32.6685 1.24852 0.183239 -852422 -274918 463043 -481217 -14551.6 203355 
2847 1 36.0868 32.6439 1.31151 0.313719 -256147 -97826.1 -82127.9 241588 88418.8 -284720 
126 1 34.3644 34.4599 1.20039 0.324426 -885513 -625999 -24172.1 -83055 152388 176186 
2775 1 36.0726 32.6291 -2.46811 0.51106 -866771 -699196 244010 -23323.7 13855.1 -231379 
62 1 34.5113 34.445 -2.50079 0.50202 -786241 -915074 165973 -67730.3 -342850 -200453 
61 1 32.6225 32.8491 -2.42876 0.817232 321227 227089 640111 -317065 65841.7 -269521 
66 1 23.9043 24.1409 1.363 0.604721 -1.40153e+06 -1.95311e+06 240410 -465742 361826 -2075.88 
65 1 22.2966 22.5396 1.45059 25.8128 -216310 -107943 650627 -792210 -8214.94 -319770 
67 1 23.8826 22.4669 3.34207 14.6918 58320.3 221805 469354 -399745 -493221 146048 
68 1 22.0304 24.1581 3.247 16.5074 206165 -274190 362126 -433785 180859 -66518.1 
70 1 27.2431 24.0162 1.44369 0.398867 741017 -36350.2 821393 298523 273905 35651.9 
71 1 27.2395 22.3163 3.24033 17.0852 1.40897e+06 203579 1.46397e+06 27005.8 253469 316135 
72 1 25.5842 24.1524 3.3304 0.258826 -497588 -237284 721311 -138899 398558 199553 
133 1 25.5054 22.2634 5.15844 18.5869 633889 244124 813809 513795 -156622 100385 
75 1 30.7416 22.201 3.25123 17.3509 1.05721e+06 165015 1.554e+06 180428 333882 9392.4 
76 1 29.1081 23.9628 3.36373 0.266765 -179938 -624083 715981 -50296 157785 220784 
137 1 29.1156 22.2975 5.18388 16.5634 1.06984e+06 102981 1.16834e+06 83214.5 451114 232447 
78 1 34.284 23.8633 1.37472 0.224523 -123329 233264 991531 -625363 104304 259168 
80 1 32.6071 23.8335 3.24172 0.332208 254521 77098.5 782462 46123.4 500308 -155582 
79 1 34.5504 22.148 3.3085 15.1801 1.68226e+06 429267 1.94032e+06 -179007 -9381.06 66318.3 
82 1 23.8461 27.5093 1.39674 0.320175 -883526 -338480 160339 420901 117322 -433629 
83 1 23.7566 25.7789 3.31183 0.347244 -1.29814e+06 -755621 701192 -46290.8 111421 -183957 
84 1 22.0187 27.3889 3.30981 15.6675 -197127 461116 1.04687e+06 242563 58521.8 67265.9 
85 1 25.6034 25.9218 1.37673 0.307304 -167493 -266326 727828 392920 -78139.9 -104279 
87 1 27.4098 25.8515 3.24009 0.389307 338953 598846 1.0705e+06 -208339 -37843.7 -270615 
88 1 25.4876 27.4736 3.41761 0.90601 -27442.7 -190183 332943 -158367 -84694 138554 
91 1 30.8921 25.5959 3.34086 0.310013 -520100 -393985 183179 -276861 460329 9665.8 
92 1 29.2519 27.5176 3.37289 0.632434 -540829 -296288 419561 -361910 116150 136446 
2811 1 36.1228 25.5966 1.34255 0.189682 464453 -115518 1.01977e+06 477696 110628 203523 
93 1 32.505 25.6625 1.36766 0.195904 384058 187264 670939 -16032.2 264050 111504 
95 1 34.3435 25.6992 3.36626 0.460908 125090 491615 680547 365732 276796 38866.6 
96 1 32.5629 27.3799 3.34974 0.429336 -401250 -554778 521794 -37478.3 296236 -42572.5 
98 1 23.6795 30.7805 1.41643 0.756875 129693 592064 387808 185163 -117702 -135661 
97 1 21.9095 29.0045 1.34596 16.1412 212048 690929 529956 106058 578.067 -223410 
99 1 23.6704 29.2079 3.32982 0.380836 -680025 -201713 202449 268505 191726 77817.7 
100 1 21.892 30.7889 3.26328 17.7063 200969 1.45717e+06 1.80091e+06 439461 165531 91507.6 
101 1 25.5843 29.3101 1.37383 0.219862 -940713 -1.02878e+06 72080 20907 -103532 -804630 
103 1 27.3573 29.1061 3.19731 1.27473 242866 434298 113938 130079 38870.8 -289336 
104 1 25.5578 30.9349 3.24662 0.219198 605394 -87304.7 228953 -523593 -81641.3 -153037 
165 1 25.4741 29.352 5.19604 0.677434 703838 291956 695086 70388.7 -61405.2 -98922.8 
106 1 30.9285 31.0868 1.41983 0.726416 94871.9 -337179 457381 -539487 79378 -80559.9 
105 1 29.0927 29.365 1.38453 0.574863 -537424 -363903 584551 -277650 59404.9 -59794.3 
107 1 30.9163 29.2129 3.26819 0.163431 -501987 -418417 260080 -372415 -5335.13 -179887 
108 1 29.1294 31.0396 3.29483 0.313907 156033 112727 392965 142897 -57556.9 15797.4 
169 1 29.1889 29.343 5.1865 0.490371 252289 165315 800507 -609481 131996 7872.55 
170 1 30.9386 31.0021 5.06407 0.551351 -531498 -378407 680539 -534852 6430.26 -117371 
2832 1 36.1109 30.8121 3.22608 0.500004 -315778 172540 525699 493155 -45296 89035.5 
110 1 34.4089 30.8259 1.40789 0.442097 -880176 -609773 118544 -176594 14181.4 -275468 
109 1 32.6512 29.1628 1.37008 0.076794 407989 483065 650725 -513613 90019.1 -242050 
111 1 34.4234 28.9738 3.29828 0.821619 -340307 -207214 350072 40131.5 95854.4 299567 
112 1 32.7781 30.8853 3.27107 0.436341 -540586 -231309 -302731 -485231 92568.2 65470.9 
174 1 34.4513 30.9951 5.09191 0.436987 -157031 297445 418324 -248351 -166826 235695 
173 1 32.7056 29.2022 5.1293 0.290946 -224224 -125319 104543 12581.7 -42903.7 125471 
1355 1 23.6575 36.0945 3.22484 0.275376 -97776.5 450357 784627 111244 15045.4 -36373.7 
114 1 23.6399 34.429 1.33364 0.217598 -242803 242786 371204 -112749 644812 -62604.7 
115 1 23.6237 32.7356 3.3626 0.775398 510017 854574 1.04143e+06 -29260 22823.2 -42982.8 
116 1 21.8538 34.4559 3.04726 15.6877 125111 1.22219e+06 1.69153e+06 -123432 395092 -70886.1 
1429 1 25.4519 36.0494 5.12644 0.523812 667812 99056.6 904817 -136120 20141.9 340351 
1359 1 27.3481 36.0491 3.22333 0.235692 179149 178988 915092 349946 220974 -126389 
117 1 25.4925 32.6669 1.33615 0.124392 727671 97806.9 385525 245593 -185717 353063 
119 1 27.2506 32.6474 3.28082 0.178161 -234553 -124443 825119 245957 52916.3 124244 
120 1 25.5284 34.3368 3.26002 0.134244 124190 -194640 607507 63790.5 75763.5 -104922 
181 1 25.4561 32.5876 5.17894 0.351844 -470646 -397005 421163 174114 -49392 55623.4 
1433 1 29.1625 36.118 5.18234 0.228757 346581 307392 861831 14333.9 -146492 54630.9 
1361 1 29.0819 36.1157 1.35522 0.265263 -266156 -15665.7 12708.1 -9286.26 61622.6 24507.9 
123 1 30.9339 32.7061 3.2021 0.182562 471748 -299844 192179 -41076.9 -1298.37 -462207 
124 1 29.1477 34.4282 3.21275 0.15395 221468 -43327.9 836841 498781 -145311 -79.8048 
186 1 31.0062 34.3965 5.13247 0.709566 205506 1299.6 876802 455494 -96049.2 223885 
1365 1 32.5859 36.1375 1.35713 0.496897 -580353 -153714 -408339 167114 204684 160191 
128 1 32.7575 34.5397 3.2236 0.62831 -127797 40414.3 613032 -341900 -63812.3 515371 
127 1 34.4204 32.6459 3.14138 0.283532 -5307.31 -521244 263214 -183120 244156 -90631.1 
190 1 34.4647 34.448 5.03202 0.884107 -248216 -193107 504940 249547 -260196 163480 
129 1 21.9592 22.8091 5.23253 28.6456 1.26572e+06 774808 1.04725e+06 -69130.3 22093.4 -13137.6 
130 1 24.0498 24.1517 5.35018 1.59493 -60089.6 -347845 750900 -41236.4 94066.2 -76227.4 
131 1 24.0527 22.3465 7.20108 14.4787 1.13137e+06 561794 916453 -489729 222654 -147082 
132 1 22.1175 24.2344 7.1786 14.7074 727922 641838 487832 -344127 -86361.9 -152278 
194 1 23.9926 24.1116 9.04001 0.229774 -148762 -308667 144910 -229742 -53649.3 314809 
193 1 22.263 22.4558 8.9581 29.9125 551704 504523 1.16831e+06 -205684 121741 -98338.4 
134 1 27.4062 24.0751 5.26515 0.219606 451787 240321 587943 186542 242902 313671 
135 1 27.2936 22.3047 6.98272 15.6216 846088 -49398.8 794626 352308 5687.48 322102 
136 1 25.7466 24.1367 7.19359 0.172224 -932479 -776388 42956 224328 -208316 264288 
197 1 25.7523 22.3415 9.04493 14.6713 360271 -325834 269230 -300492 -291571 -15768.3 
198 1 27.3461 24.1206 9.05749 0.219472 -364054 -485641 537655 -537143 -328659 4806.01 
138 1 30.9916 23.9323 5.21135 0.229376 112721 -201907 683481 -313355 124639 263023 
139 1 30.9508 22.2951 7.28182 15.3746 334070 186402 413006 104638 -563736 -249046 
140 1 29.1794 24.0415 7.12224 0.193642 160247 -309477 327549 -158433 -476146 398607 
201 1 28.9925 22.2426 8.8474 14.7613 1.26166e+06 331917 1.21651e+06 1818.43 72942.6 218778 
202 1 30.7848 24.0229 9.01251 0.642976 71649.3 -803453 34380.6 341424 -63944.2 72782.7 
142 1 34.5634 23.8939 5.27742 0.424436 365770 340802 912221 -25891.4 167179 91114.9 
141 1 32.7165 22.0948 5.2331 18.1121 1.97997e+06 824918 2.1593e+06 78712.8 66776.2 118129 
144 1 32.8176 24.0164 7.11585 0.800589 344480 -159409 396419 -105537 -32004.8 367638 
143 1 34.4859 22.0972 7.24065 16.8817 1.18031e+06 434715 1.1946e+06 -130957 -49118.1 -104011 
205 1 32.5768 22.2276 8.92334 15.7164 286698 303386 772208 -370080 -646445 99635.4 
145 1 22.0105 25.7101 5.21507 14.8066 453242 942010 391594 -174271 167531 40355.8 
146 1 23.8283 27.379 5.3539 0.804758 -1.80326e+06 -280920 369728 972708 616168 94285.1 
147 1 24.0021 25.864 7.32645 0.874301 -137433 -418124 -219897 95007.8 22033.7 310071 
148 1 22.0286 27.4214 7.02919 16.0145 139763 859122 657728 -66187.7 414719 228523 
150 1 27.4727 27.5578 5.2441 0.331571 124827 264934 696989 -672187 122661 378350 
149 1 25.6685 25.9698 5.33703 0.654402 -993592 -855391 340895 54171.6 -47895.5 483124 
151 1 27.4157 25.9385 7.19662 0.205691 -160022 -480820 219060 -249432 -55258.8 -486.569 
152 1 25.7299 27.6989 7.24893 0.680421 -221125 -299886 406385 -36341.7 -232223 85663 
154 1 30.9604 27.406 5.2082 0.247972 -605722 -259277 88335.7 -591543 152457 -166740 
153 1 29.2586 25.7681 5.22262 0.206862 -192692 -168245 568647 -517434 298004 311226 
155 1 30.9799 25.7101 7.22532 0.239477 11805.4 94375.1 319253 -479727 -148733 237345 
156 1 29.1706 27.6277 7.26949 0.480657 -618108 -136807 653474 -937359 -27844.2 -189421 
158 1 34.4621 27.4532 5.25135 0.239002 -293219 -791178 -208978 -191391 226298 -10637.6 
157 1 32.7104 25.6553 5.23822 0.0980647 -103716 -284601 117985 -166528 276190 332065 
159 1 34.5225 25.7843 7.24325 0.646072 -978233 -793573 698061 -105535 -147987 -142075 
160 1 32.8062 27.3657 7.13543 0.361381 -791564 -658901 481096 238565 50768.7 -72292.9 
162 1 23.6645 30.9441 5.23715 0.289819 -534891 -457772 981570 -13084 58344.6 -48216.1 
161 1 22.1007 29.0606 5.22039 13.7683 -179621 469814 498673 51991 186283 436357 
163 1 23.725 29.2514 7.2152 0.335788 -532038 350907 406802 129890 219964 135723 
164 1 22.0038 30.9747 7.25996 17.1637 -330375 541988 1.18156e+06 -296513 -138478 262471 
225 1 22.0975 29.1897 9.04942 15.1385 -162862 907367 1.04472e+06 376616 293775 420157 
166 1 27.3115 31.0583 5.26822 0.344922 -303101 -86726.9 379874 50356.8 279515 246999 
167 1 27.435 29.4282 7.20957 0.444041 -671386 -767974 615935 -95306 -112135 34260.2 
168 1 25.6004 30.9687 7.12781 0.304852 76096.6 -174928 139113 -45254.7 232163 186241 
171 1 30.973 29.107 7.10554 0.48899 17788 196117 1.20131e+06 -566884 84296 -81856 
172 1 29.2689 30.9836 7.23626 0.556253 72124.2 197672 754839 -477484 44573.1 30672.5 
234 1 31.056 30.9975 9.06274 0.207593 240871 536266 442154 -72715.8 260302 77397.9 
175 1 34.4271 29.1967 7.00555 0.57035 -36336.9 -167933 674080 -35120 110137 -320169 
176 1 32.7326 30.952 7.15035 0.183734 495616 452485 1.02833e+06 193562 126083 188909 
237 1 32.8267 29.1235 9.06364 0.475037 -345590 -308151 264924 338088 121451 249129 
1425 1 21.9601 36.0625 5.21306 15.1064 474746 1.25392e+06 1.39293e+06 129153 76514.6 547697 
178 1 23.7166 34.354 5.24097 0.354504 -596364 -523906 619155 -312917 -82348.4 -22069.9 
177 1 21.932 32.7305 5.29288 17.0858 -89102.6 1.30612e+06 1.40824e+06 -222608 -108485 -98839.3 
179 1 23.6045 32.7077 7.13467 0.460421 -164963 -17400.7 355240 -886003 -63341.3 362898 
180 1 21.7979 34.5261 7.09872 19.5026 819293 1.22401e+06 1.29474e+06 -111575 183485 106720 
1431 1 27.346 36.0885 7.17731 0.282521 -177156 -396206 984681 125054 -66720.7 37434 
182 1 27.2732 34.315 5.27619 0.328546 164082 277251 545202 252935 -157376 96246.7 
183 1 27.3433 32.6879 7.15241 0.0658641 142073 -232489 304994 -542870 213782 119871 
184 1 25.4423 34.4001 7.07663 0.400022 202290 578231 742023 39779.6 160936 66379.5 
185 1 29.1346 32.7098 5.27011 0.212187 -189354 39475 753172 37716.8 -20893 -327322 
188 1 29.0514 34.4307 7.14442 0.27666 -571084 -714115 261958 114466 -361534 -60270.8 
187 1 30.9888 32.8217 7.0447 0.595005 150418 30030.6 256305 -176909 358624 87643.8 
250 1 30.9105 34.5169 8.91348 0.784156 -456485 -739456 266029 -292969 -46982.9 -25224.4 
1439 1 34.5401 36.0845 7.10824 0.959671 -1.02774e+06 -604548 720118 -32961.4 -173882 376954 
189 1 32.6505 32.6801 5.20392 0.387119 -650313 -366638 778107 316580 213718 -9199.25 
2919 1 36.1141 32.7955 5.2829 0.770525 -467019 -433062 737540 428561 142875 91447 
191 1 34.4181 32.828 7.17248 0.370043 87181.3 97315.7 776259 138561 202846 -175305 
192 1 32.7238 34.5801 7.12076 0.605396 -580089 -324624 691450 -517309 -13680.3 188775 
254 1 34.5457 34.4889 9.0574 0.178544 -184973 -474288 258250 92289 84072.5 95910.6 
195 1 23.9864 22.2245 10.8393 16.6402 774202 294946 1.48358e+06 -244021 -124494 27606.8 
196 1 22.2156 24.0218 10.9243 15.4757 308229 826007 1.06049e+06 -231848 -210935 -425889 
258 1 23.8172 24.0898 12.8033 0.500154 -899599 -95561.8 99098.5 332995 -279674 200493 
199 1 27.29 22.2379 10.9483 16.027 982442 369532 924489 207260 -264333 -102404 
200 1 25.6126 24.0436 10.9409 0.358016 120265 -293788 311900 53555 -53723.7 198233 
262 1 27.3847 23.968 12.881 0.238267 -611284 -574714 748466 -565887 63141.6 27423.4 
261 1 25.5888 22.4075 12.8125 14.0324 526275 -678847 346578 -159657 -85912.1 -206574 
203 1 30.7743 22.307 10.9339 15.8105 866096 64878.6 1.63182e+06 429287 383026 85690.2 
204 1 29.1309 23.9836 10.9694 0.150631 -260448 -986322 415511 661050 257414 385952 
265 1 29.1371 22.2749 12.8055 17.0199 1.05007e+06 135944 1.06538e+06 183003 173313 81336 
2940 1 36.0637 23.8545 11.2606 1.01731 119182 -171496 641642 773536 136667 -125234 
2937 1 36.1189 22.1593 9.11127 15.2277 117713 137404 695112 39876.4 -491475 69916.9 
206 1 34.3696 23.8233 9.15577 0.400058 -539976 -478099 785862 67820.2 117534 -495102 
208 1 32.694 23.92 10.9899 0.266932 411311 379819 808315 -468446 467569 195729 
207 1 34.4211 21.9147 11.0461 18.8314 1.82731e+06 1.04576e+06 1.88464e+06 -143445 237316 10510.5 
269 1 32.6781 22.1679 12.9212 15.3585 1.22344e+06 149100 1.35434e+06 -250773 5538.6 -107437 
210 1 23.8132 27.5522 9.13993 0.236151 -580651 -628531 680441 565654 20684.5 29043.1 
209 1 22.0719 25.8524 9.1013 16.0263 242416 993322 928753 -369170 44111.5 -307816 
211 1 23.8545 25.8742 11.0246 0.242923 -121120 -276131 386567 147987 126694 94964 
212 1 21.9537 27.4338 11.0233 17.259 298200 793575 732565 260029 -128611 87670.2 
274 1 23.7095 27.548 12.88 0.297342 -232491 -423927 288710 883.042 -60471.3 191356 
273 1 21.9916 25.7455 12.7934 18.2061 -9996.3 642969 784948 26964.3 -33806.3 134243 
213 1 25.731 26.0317 9.13325 0.848354 -981209 -787176 10392.1 -408348 -187189 -89688.4 
214 1 27.4033 27.6123 9.09587 0.122767 -1.15426e+06 -641293 -228710 -1.26075e+06 -33268.3 -241885 
215 1 27.4739 25.8212 11.0349 0.175875 -119015 207881 364909 103092 41901.8 44659.7 
216 1 25.7136 27.6378 11.0293 0.325303 380997 -402596 -155416 -182206 210409 -669362 
218 1 30.9178 27.4566 9.12075 0.162398 26321.4 97041.1 565460 -88678.8 -284060 -128268 
217 1 29.1533 25.7635 9.18573 0.289706 -529992 -396589 570621 -59805.4 250566 157164 
219 1 30.9186 25.718 11.1507 0.465186 332056 62691.4 700619 -587514 81505.1 148355 
220 1 29.1352 27.6458 11.0246 0.617144 316073 107421 435132 29948.8 91961 101229 
221 1 32.6939 25.6644 9.08854 0.190891 -236563 -147648 -32685.8 -66553.6 -449066 -102285 
222 1 34.4169 27.4199 9.14103 0.316318 -763821 -1.29153e+06 -30003.7 278833 -26218.9 -110848 
223 1 34.423 25.6662 10.9159 0.865494 -816604 -836413 217493 33268.9 127110 4674.89 
224 1 32.6894 27.3364 10.9929 0.49057 -396682 -265892 666387 213435 213156 -102384 
226 1 23.7095 31.1141 9.09717 0.527443 -1.03029e+06 -387434 721641 353768 -283276 24170.2 
227 1 23.7716 29.3157 11.072 0.286947 -126217 433608 328740 -91982.4 13390.5 -55841.2 
228 1 21.9244 31.0204 11.0362 19.0593 632126 876298 1.14921e+06 3847.08 61806.8 -12946.3 
289 1 21.9874 29.2809 12.871 17.2856 6098.61 1.06142e+06 983896 123915 22187.6 87050.6 
230 1 27.5254 31.0135 9.10797 0.505466 -136083 -388682 125307 270364 -47624.7 -93575.1 
229 1 25.5233 29.4859 9.13246 0.835662 582223 430671 373286 91221.4 28105 -21230.8 
231 1 27.4269 29.3777 11.018 0.338354 11516.5 -222933 325978 49930.5 368728 -147686 
232 1 25.5096 31.0608 11.114 0.506221 -8688.97 -319289 72568.4 49258.4 220733 -86331.2 
293 1 25.578 29.1806 12.8704 0.672423 -111450 -89491 315594 193270 -79221.8 -258308 
298 1 31.0206 31.1423 12.8879 0.497885 -352451 -8613.12 594978 -55873.9 90839.6 23175.8 
233 1 29.1812 29.2543 9.13933 0.261611 -347152 -1.00602e+06 -259441 124823 52810.9 -48373.5 
235 1 31.1511 29.2745 10.9496 0.783638 145690 51747.2 583002 -50977.9 -99261.3 -21051.3 
236 1 29.3546 31.0683 10.9057 0.688191 -159799 -97268.5 244372 -369903 -107976 -254873 
2973 1 36.1249 29.2045 9.11651 0.233328 100336 31202 470063 -210941 239457 -410503 
238 1 34.4079 30.9939 9.10018 0.289138 134900 -101618 837115 154621 -12329.9 304.449 
239 1 34.4555 29.2251 11.022 0.30174 -420748 152855 287414 -318906 270694 -235181 
240 1 32.7725 31.0659 11.0986 0.364015 -606316 -812562 85339.5 -195756 211767 389647 
301 1 32.7624 29.2674 12.9025 0.288462 148890 511199 586990 -465568 -225794 59764.6 
241 1 21.9943 32.7553 9.16045 16.7606 -55004.2 821905 1.43606e+06 424458 149747 -168241 
242 1 23.849 34.4333 9.116 0.492039 322099 399320 1.0494e+06 -388840 264121 122800 
243 1 23.7686 32.7453 11.0988 0.233123 -113993 275831 536003 222378 234364 -157898 
244 1 21.9878 34.6034 11.0022 15.0858 -198025 597834 940545 -760151 -87189.2 22386.2 
305 1 22.0093 32.6471 12.8713 15.8912 -77268 661752 961597 -355154 205506 -86273.2 
310 1 27.268 34.5678 12.9013 0.693637 33244.3 267880 284843 -496274 -421771 -88346.8 
245 1 25.5997 32.6321 9.1271 0.40232 79513.1 257791 1.02649e+06 -384922 128311 185396 
246 1 27.3339 34.4011 9.16278 0.273315 220601 -143771 552919 -180383 120785 127663 
247 1 27.4082 32.72 11.0339 0.202562 269309 357917 583924 -40863.5 -217513 97778.3 
248 1 25.5967 34.4967 11.1113 0.37377 -90251.4 203569 375675 -173644 -357552 -46825.2 
1507 1 30.8947 36.1313 10.8778 0.768616 -241253 102933 633493 -412717 -23385.6 140649 
313 1 29.1451 32.6669 12.8959 0.466118 -234185 -165883 503476 -344332 -82425.1 -32330.6 
249 1 29.2748 32.807 9.07734 0.294363 -61401.6 -430198 576134 -408665 -14356.6 367436 
251 1 31.018 32.7822 10.9804 0.206321 -612822 -467897 115070 -575190 168046 -61775.1 
252 1 29.1242 34.5637 11.0422 0.487657 -398669 -167343 641080 -369441 -269676 108133 
314 1 30.8456 34.4258 12.92 0.458503 -343164 -101631 325368 -132595 33947.9 113272 
318 1 34.6046 34.4925 12.8405 0.466152 -110513 -291091 55633.2 -202622 60998.6 172566 
253 1 32.7562 32.8152 9.21744 0.746378 -546846 -159322 332284 -76542.4 204892 -130746 
256 1 32.7521 34.4966 11.0383 0.227642 -233027 -764902 152872 -20694.4 -79988.7 -231357 
255 1 34.5248 32.765 10.9899 0.145401 -483693 -100104 149414 -416764 -194089 -246517 
257 1 22.3305 22.197 12.9774 31.8618 945511 771770 1.60025e+06 -57769.8 -275983 -208289 
259 1 23.9241 22.2708 14.8988 16.5491 445.443 -120230 1.23331e+06 -19476.6 -492797 50204 
260 1 22.2576 23.9693 14.7638 14.7113 -172429 -204429 973540 -153371 128901 345.445 
322 1 23.9952 24.2349 16.6878 1.20877 -676155 -149029 759725 -146992 -44288.7 -221527 
325 1 25.578 22.3389 16.7178 15.7481 450496 181568 837823 -303386 12265.9 -38484.6 
263 1 27.233 22.1375 14.7775 17.7668 1.81007e+06 780223 1.51052e+06 66516.4 -50749.4 -105561 
264 1 25.5081 24.0435 14.6084 1.30617 576721 -90069.4 338361 -407625 199618 -144600 
326 1 27.4211 23.8836 16.6615 0.566562 188675 -277269 1.00859e+06 -244895 254985 89761.1 
266 1 30.9456 24.0114 12.9491 0.306412 11949 -441285 22463.6 -118765 -4126.44 -103027 
329 1 29.0698 22.14 16.748 17.9884 845588 -89263.3 1.13287e+06 196024 328385 -186863 
267 1 30.8296 22.1738 14.8799 17.7377 869635 66746.9 1.51811e+06 -145373 60477.1 -5238.63 
268 1 29.152 23.9295 14.7803 0.245163 90453.7 -133637 435678 -22776.5 85872.1 126217 
3009 1 35.9927 22.0629 13.1244 14.4658 1.4064e+06 383331 1.06798e+06 233234 -47774.7 -145854 
270 1 34.3382 23.9121 13.0066 0.447253 -981621 -793847 735121 562117 423046 -92216.8 
3012 1 36.1439 23.7653 14.9544 0.309815 404717 -308042 998649 521414 -198033 -128174 
272 1 32.5829 23.8189 14.883 0.371289 -780043 -1.30325e+06 515130 722108 -17938.7 257679 
271 1 34.1881 22.1053 14.9887 15.7495 828843 259563 1.50279e+06 577635 48720 32271.4 
276 1 21.8973 27.4994 14.7958 19.5073 302082 1.03313e+06 1.78882e+06 401673 170959 -44491.9 
275 1 23.6463 25.8863 14.7121 1.33895 -489759 -489700 514587 -273522 58047.1 286196 
337 1 22.0397 25.6966 16.6983 17.4884 145099 1.31224e+06 1.33912e+06 -37687.7 267041 -350849 
278 1 27.5007 27.6338 13.0162 0.589958 -114978 -418415 273163 -60725.7 -74270.8 -60582.8 
277 1 25.6854 25.9629 12.9471 0.776374 553086 673268 583670 -117638 -222151 320703 
280 1 25.5558 27.5819 14.9487 0.501834 417418 -427270 -150012 348879 142715 -139449 
279 1 27.3816 25.8739 14.8013 0.327496 -65479.3 789708 230466 30598.8 174855 208183 
341 1 25.6954 25.8754 16.6805 0.609768 -676029 -605369 570479 -694618 293522 563853 
345 1 29.1112 25.7396 16.7264 0.371543 65292.7 53770.3 475067 99386.9 126453 -112774 
284 1 29.2852 27.5016 14.8709 0.228813 -135891 17253.4 186927 -381372 -199821 9756.84 
346 1 30.9975 27.4137 16.7191 0.396031 -710605 -202082 148136 216538 34332.3 59242.5 
283 1 30.958 25.5472 14.8901 0.518778 -300925 -444152 211623 145887 71072.5 -302244 
282 1 30.9522 27.4712 12.9937 0.23434 574947 413376 1.01509e+06 290545 333730 -316612 
281 1 29.0969 25.6909 12.9834 0.428325 -249359 93757 376672 -30441.2 157801 21212.2 
287 1 34.4952 25.5375 15.0336 0.416457 -135603 -111518 326533 352815 -180837 -74714.2 
288 1 32.7843 27.3605 14.9997 0.368482 181390 115272 558905 -198598 408894 36388 
286 1 34.4786 27.2738 12.9985 0.444282 -120453 288634 876471 -415898 -569.724 -126925 
3030 1 36.0998 27.4437 14.9342 0.6401 67670.2 -382078 246868 -52283.5 -31306.3 -284108 
285 1 32.8061 25.6123 13.0804 0.711191 -898594 -1.01278e+06 817976 -48231 58445.8 84311.6 
292 1 22.0037 31.0555 14.8167 15.3855 78085.5 1.00987e+06 1.34197e+06 -177416 96587.8 53053.4 
290 1 23.8321 30.9521 12.9982 0.263802 -237160 -204420 68173.4 29520.1 344071 -29939.6 
291 1 23.72 29.2649 14.8185 0.242883 -129014 343139 773940 123000 -152744 216399 
353 1 21.961 29.1758 16.7528 17.563 635501 1.59969e+06 1.62706e+06 -212149 -48641.8 25306.7 
295 1 27.4465 29.2849 14.8254 0.269101 558421 25082.7 428331 -2953.68 -65393.8 -189917 
294 1 27.4423 30.918 12.9581 0.437621 471755 -22175.4 479534 -261460 -225946 -26383.5 
296 1 25.5946 30.9605 14.9366 0.226198 478855 -26948 677649 153186 -99657.1 -7378.32 
357 1 25.4465 29.1847 16.7327 0.850445 491734 -512788 28288.2 -51883.6 -80932.1 -152609 
297 1 29.3835 29.2913 12.9888 0.740345 136519 -80120.5 1.08669e+06 145884 -89403.7 -117881 
362 1 30.9412 31.0096 16.7511 0.191939 41380.7 -98480.3 402874 -253082 125276 -309049 
361 1 29.2616 29.272 16.7196 0.340053 -436717 -313285 276817 -62148.1 220583 -115522 
299 1 31.0248 29.2237 14.9618 0.310788 10541 -3719.88 248958 -549789 -28575.2 -163611 
300 1 29.1767 31.0898 14.901 0.314236 202034 40149.7 408184 -18052.2 -297467 57599.2 
304 1 32.7326 31.0186 14.9061 0.110515 -30454.6 253230 796777 1756.53 84320.5 -104231 
303 1 34.4006 29.1566 14.8491 0.373291 -287499 -403887 387162 87338.1 -460804 88957.8 
302 1 34.5245 30.9076 13.0043 0.24918 -514129 -168099 130478 -625018 -461239 -64046.1 
3117 1 36.0929 29.1738 16.6984 0.786068 -528538 -427673 253706 -104403 -99446.8 -565080 
308 1 21.8873 34.3882 14.9688 17.0816 485722 1.41607e+06 1.54935e+06 -282731 46021.3 161598 
307 1 23.7875 32.6732 14.8933 0.246767 -687788 -537434 530670 -776971 -185432 -50825.1 
306 1 23.6115 34.41 13.0222 0.412696 -458035 -198688 701308 -745094 -285009 22369.8 
1575 1 27.3531 36.0942 14.9178 0.311173 310393 -71415.1 329628 348599 204011 -295444 
1573 1 25.3073 36.1254 13.0062 0.758415 -266497 -889507 133011 62265 -149453 233980 