ITEM: TIMESTEP
800000
ITEM: NUMBER OF ATOMS
5780
ITEM: BOX BOUNDS pp pp pp
7.9011419562156726e-01 7.1509885804393988e+01
7.9011419562156726e-01 7.1509885804393988e+01
3.6366830674577710e-01 7.1936331693269778e+01
ITEM: ATOMS id type x y z c_csym c_2[1] c_2[2] c_2[3] c_2[4] c_2[5] c_2[6] 
65 1 21.6672 21.8065 3.92761 27.8021 168521 613157 919437 7487.39 -8053.13 -237005 
3 1 23.3553 21.5991 2.20078 16.9433 803815 634607 1.18646e+06 -129659 164470 -325007 
5 1 25.2709 21.6135 0.36519 17.0459 940431 525294 726905 27289.2 -104797 83141.3 
7 1 27.1128 21.7302 2.1346 16.4567 1.00186e+06 105974 1.07788e+06 144520 25703.3 167600 
9 1 29.0738 21.7372 0.529786 14.6923 1.1646e+06 360681 900404 -182183 43778.5 -108644 
11 1 30.874 21.6976 2.35055 14.5552 807182 290118 633415 -51825.1 520083 -235451 
13 1 32.5173 21.6063 0.520845 11.812 412569 364853 733096 46004.9 -270055 -60733.7 
15 1 34.2699 21.7101 2.10256 14.6314 393872 139156 627992 44391.3 -596546 -168512 
2793 1 36.1244 21.4979 3.87223 9.45559 1.10296e+06 890762 798948 72513.7 -108473 100500 
2721 1 36.1358 21.607 0.414953 17.7094 925959 532004 617786 -124805 528923 79099.9 
4 1 21.4603 23.474 1.94773 16.1537 938692 620029 987116 36477.3 198440 -272746 
81 1 21.4642 25.2301 3.69456 8.74041 596086 226717 670585 124240 222110 683627 
17 1 21.5791 25.4369 0.455115 9.14282 223911 450252 615491 -463616 -238038 -5520.21 
19 1 23.4758 25.3681 2.1194 0.493079 306535 -308879 -749947 -86012.2 -143167 206941 
8 1 25.2228 23.3739 2.2298 0.729288 -421047 -100943 -375008 248680 234480 -163606 
66 1 23.3878 23.5712 3.74268 0.688801 -654595 -381604 122720 -275810 797550 39915.1 
85 1 25.2753 25.2236 3.88374 0.330613 -568325 -157728 -417932 -11255.1 481016 28828.1 
2 1 23.5058 23.5612 0.405151 0.428444 79402.6 -122519 145551 -493335 -377168 23134.7 
23 1 27.1082 25.309 2.26317 0.250881 -39395.9 -50170.5 -663261 153270 385421 -41884 
12 1 28.9868 23.5339 2.23456 0.108363 -28764.9 -540875 -275378 -192721 -138278 -24032.8 
70 1 27.105 23.5381 3.89677 0.291269 -353284 -389142 -498298 126553 19101 436715 
6 1 27.0858 23.5404 0.461633 0.379619 468216 -614126 -145625 59981 -137720 -327428 
25 1 28.8873 25.3266 0.503256 0.298199 142284 207943 464238 -645596 116451 304470 
27 1 30.7157 25.318 2.32499 0.402545 -410209 -572575 -726344 -426956 -10178.3 210410 
16 1 32.6011 23.5824 2.2922 0.59947 -564684 -191022 -835825 17587.3 -326670 -670843 
10 1 30.9123 23.507 0.477686 0.687911 338917 -122315 275876 -250318 26554.7 94811.4 
29 1 32.4678 25.4218 0.425371 0.774071 -643861 -1.05521e+06 -55029.6 -5096.32 -221355 257568 
31 1 34.3864 25.3181 2.1345 0.460347 -323341 -162910 -246350 -286128 44672.5 5888.07 
2724 1 36.1006 23.4555 2.12815 0.313722 620045 -41317 540756 -211700 -78988.1 183783 
20 1 21.4576 27.1958 2.31439 9.88497 355336 62903.5 84565.1 -172189 -468068 672015 
33 1 21.5562 28.8288 0.574139 14.2643 158312 507369 539107 -62138.7 -348045 248632 
24 1 25.2834 27.171 2.13109 0.28842 458257 310922 581848 -195719 -31282.2 156558 
35 1 23.3715 28.9008 2.21527 0.231391 -119878 182228 -162604 -19701.5 -95990.3 194448 
82 1 23.3222 27.0487 3.88182 0.422707 230029 101321 -285655 63748.3 -191823 73710 
37 1 25.2037 28.9336 0.365161 0.108271 29128.4 -378648 -319853 263628 -168937 440659 
18 1 23.3951 27.0775 0.371328 0.289314 -249616 -249457 -257263 -243770 -496028 357218 
28 1 28.841 27.2313 2.24829 0.504364 291197 -87908.7 -135791 -145385 428938 48281.1 
39 1 27.0277 28.9838 2.29963 0.445423 90702.6 -478760 187461 228849 8678.78 -203591 
41 1 28.8552 28.8756 0.402251 0.163601 281702 -170886 386110 -257702 69541.9 282396 
26 1 30.6284 26.998 0.441403 0.521067 -740740 -184753 290020 -8157.13 -184783 123184 
43 1 30.6752 28.9517 2.28095 0.249984 74550.3 253693 286953 67946.6 401072 124625 
32 1 32.4877 27.15 2.18429 0.276013 2301.36 -399948 -817945 -101072 301819 213404 
45 1 32.4527 28.8133 0.482221 0.596627 657474 -158002 -298395 55014.7 -150355 234197 
47 1 34.3656 28.9378 2.14704 0.153377 -33264.1 489672 207924 -111908 157526 -45438 
30 1 34.3545 27.047 0.388473 0.230555 -427330 -2145.63 -103652 -90349.2 -376710 426983 
36 1 21.4945 30.7202 2.12357 10.9749 367969 518871 451040 -28009.8 -119085 244793 
49 1 21.5177 32.4664 0.451853 18.1859 419053 439322 333804 -56979 59999.4 -88732.5 
40 1 25.2483 30.7136 2.16958 0.154878 203311 254724 258488 349544 -44003.4 -254341 
51 1 23.3614 32.4851 2.20118 0.134105 -358946 3002.34 -123786 159768 91438.3 195451 
98 1 23.2583 30.7424 3.92999 0.548225 -722072 -722714 -63314.4 -369061 191208 221534 
44 1 28.9118 30.8102 2.20801 0.175119 -581022 -138036 -468002 -264683 -8026.08 44621.7 
57 1 28.9018 32.559 0.403561 0.181059 -792649 -287903 -284036 -496364 -327583 322871 
102 1 27.1039 30.7586 3.90824 0.336428 240893 -85964.2 17130.3 147654 -128473 -604600 
38 1 27.0816 30.7036 0.443873 0.314274 334105 89032.1 -61142.7 -76695.5 112700 19252.5 
48 1 32.5732 30.7649 2.15831 0.179304 602135 421926 663088 4531.04 -62719.6 4083.13 
59 1 30.6529 32.5215 2.14183 0.210268 -255705 -460651 -578359 -363891 -159499 414989 
63 1 34.3257 32.5997 2.20513 0.207758 172548 17686.9 128822 -392404 416959 162837 
2760 1 36.14 30.7346 2.22233 0.142249 -282603 -47836.6 -97600.7 -44436 91075.8 63205 
52 1 21.5928 34.2619 2.10934 15.6596 64335.6 773213 340486 236958 86758.6 168999 
1281 1 21.3925 36.0939 0.449389 19.9417 1.11216e+06 1.11651e+06 1.08884e+06 253918 -126796 -292236 
56 1 25.1551 34.3432 2.23076 0.258613 -39596.6 136682 38077.4 196344 -263631 5985.38 
50 1 23.338 34.3519 0.394524 0.0956708 -296490 392376 -24027.8 32461.3 -10458 -336666 
114 1 23.2993 34.3469 3.93063 0.386839 -553441 -55152.8 277074 -385994 108988 -38812.4 
55 1 27.0433 32.6322 2.0313 0.65945 190835 -199439 -144325 134383 44711.2 -349025 
121 1 28.8515 32.6453 3.88947 0.286428 -78010.1 -244390 54656.5 242583 91444.3 -170610 
60 1 28.8793 34.4321 2.18212 0.348132 -684164 -952707 -1.06079e+06 -188752 272819 -76854.1 
118 1 26.9687 34.2687 3.87065 0.43352 -282372 -74419.5 -103989 150501 -151037 3781.24 
54 1 27.0338 34.455 0.366277 0.336496 235227 -341486 -260147 2741.41 -222033 76825.5 
64 1 32.3966 34.4393 2.12287 0.227717 -797936 -343189 -613211 -57705.6 349231 274456 
1291 1 30.6606 36.1306 2.19256 0.130273 -1.10845e+06 -1.24437e+06 -413036 254813 76235.7 185048 
122 1 30.7251 34.3885 3.92615 0.240088 -623529 -612306 -591452 185146 13462.8 347109 
58 1 30.5851 34.2514 0.405364 0.510177 -867398 -646452 -369653 -266226 -284980 336965 
126 1 34.3138 34.4707 3.87183 0.400202 70458.2 -496336 -8705.89 -345078 86899.2 -247645 
62 1 34.1717 34.4513 0.375969 0.528984 -401621 -14090.3 -149804 46414.7 -108465 -18745.7 
2778 1 36.0654 34.3603 2.04221 0.538196 11328.6 312841 201061 -275328 462820 -68469.3 
129 1 21.7491 21.9036 7.30668 24.645 -272199 81263.1 783974 -382492 327273 -158999 
69 1 25.1808 21.6909 4.00808 16.0729 1.04934e+06 -173857 258829 -11779.8 340954 -233954 
67 1 23.3927 21.6359 5.60189 17.5297 -261091 965560 393963 -27117.2 571637 -96995.9 
133 1 25.233 21.6723 7.41027 16.5843 1.03645e+06 250875 763677 -20850.6 -149221 10053.5 
73 1 29.0015 21.6865 3.95101 16.1925 458596 128930 429859 -191820 118591 -120749 
71 1 27.1978 21.7554 5.73982 14.4925 -290606 -397751 39241.6 -409451 -496029 -79045.3 
77 1 32.6084 21.4975 4.28578 9.39665 1.52359e+06 200499 1.31922e+06 -326752 -45066.2 -870872 
75 1 30.5887 21.7056 5.8395 13.8434 634846 -108264 506686 73740.3 -105808 -293519 
79 1 34.6388 21.3666 5.82544 13.831 1.24301e+06 788302 1.05059e+06 -351046 30261.8 -18602.6 
141 1 32.6363 21.5503 7.51305 15.5507 1.13714e+06 244212 1.05057e+06 -235373 -40695 280465 
68 1 21.605 23.6818 5.52847 13.707 618941 318485 122350 -235310 144129 -63276.2 
145 1 21.6594 25.2041 7.41023 15.5545 143795 -48692.8 -91916 -4869.98 28813.1 333162 
72 1 25.2889 23.4405 5.59845 0.461919 438367 -724314 -269930 154758 183613 -189786 
83 1 23.5496 25.3054 5.64641 0.721523 -384157 -223654 174909 -339156 316409 214197 
130 1 23.4593 23.4896 7.44911 0.232999 -571624 -753722 575719 -457821 -205349 281007 
89 1 28.8987 25.3482 4.00545 0.207548 -399467 -477695 -547156 206806 -9667.63 -391541 
87 1 27.0676 25.3218 5.81984 0.482354 387191 -170415 -262806 138285 152249 111891 
76 1 28.8494 23.4564 5.68414 0.408476 -656642 -913969 147052 -318459 124980 -86052.6 
153 1 28.9799 25.3179 7.51227 0.137738 226181 274070 -242460 174809 170686 106624 
134 1 27.0178 23.4964 7.49346 0.20227 32632.7 -665399 -495317 210273 -68473 184776 
93 1 32.5651 25.268 3.98645 0.174654 -234591 -352295 45705.3 -43355.2 -210671 -563229 
74 1 30.7007 23.5506 4.01495 0.441374 -42664.6 -617273 -603229 -377916 47223.9 -144450 
91 1 30.7389 25.225 5.79878 0.295888 -81770.3 -223899 -548145 178327 70382 -61029 
80 1 32.5841 23.2899 5.79745 0.552345 248191 -551811 -704478 -318073 392300 -556723 
157 1 32.5861 25.1646 7.49759 0.380455 -223177 -5288.43 -280760 -130073 325642 -86490.6 
138 1 30.7714 23.4594 7.49667 0.271841 438729 -454550 -319926 -75326.2 159991 80240.1 
78 1 34.2762 23.3615 4.02239 0.564892 -9633.7 699948 66659.1 49942.3 -336051 -234108 
95 1 34.3384 25.2504 5.85869 0.261179 -79166.3 78795.4 -461267 89638.6 166066 4000.57 
2811 1 36.1241 25.346 3.94873 0.364908 -166392 -202043 -331215 -76508.5 -342058 134601 
2796 1 36.0834 23.4197 5.72921 0.402189 -125668 -99483.4 507541 -41382.7 113525 -256236 
97 1 21.6089 29.0284 4.00735 15.2503 -611034 358269 332807 -435597 -378904 -251426 
84 1 21.6015 26.9391 5.73638 14.3837 213378 1.07472e+06 963445 2555.27 -52471 435855 
101 1 25.1995 28.9177 4.08116 0.399392 527435 697624 267940 47896.9 86874.9 138878 
88 1 25.1812 27.0706 5.75521 0.251513 -25216.7 -465520 54546.6 -418523 13968.3 220726 
99 1 23.2677 28.8686 5.70541 0.48277 -453922 467577 116226 209561 -212361 208012 
165 1 25.2316 28.8418 7.50222 0.176533 442130 -193554 262931 -12814.9 -22488.8 82318.7 
86 1 27.081 27.0832 4.03606 0.238698 160612 -145221 -126639 175583 254374 -200598 
105 1 28.9244 28.9707 4.04126 0.179357 -251702 -151861 -563867 -88923.2 377031 -212282 
103 1 27.1108 28.9163 5.70053 0.211141 33824.2 -191234 -694599 -284959 1706.6 -306477 
150 1 27.1198 27.1482 7.42863 0.263861 263140 -243172 90646.6 -5578.01 -40979.7 -118967 
90 1 30.8605 27.1156 3.99609 0.472784 -235235 53945 -639297 56694.2 490892 -134749 
92 1 29.0794 27.0816 5.68443 0.722608 178982 -236277 -161529 106843 104409 13192.4 
107 1 30.7747 29.0075 5.7982 0.161117 -52160 -384969 83346.2 -61025 -217856 91243.3 
96 1 32.5244 27.1756 5.8209 0.299421 -693716 408870 -844068 111135 628472 -35787.1 
154 1 30.9089 27.1557 7.48151 0.659223 -954726 -210654 -1.40936e+06 -371149 493465 -194629 
109 1 32.6694 28.9723 3.99726 0.518192 154966 1659.92 4344.49 -196086 -24890.4 66494 
94 1 34.3039 27.0808 4.05626 0.293891 39872.6 8961.96 579972 193476 128059 -90283.7 
111 1 34.3868 29.0141 5.76269 0.25918 -151589 88630.4 -501666 -421107 -56744.5 -572142 
2829 1 36.1398 28.9066 3.99788 0.109992 231332 137066 -87126.2 -297841 275825 -115550 
113 1 21.6503 32.5848 4.00362 16.7215 -427818 475256 836100 -46161.5 18483.5 414595 
100 1 21.6698 30.7797 5.82628 14.8587 -200237 466990 702164 -11718.2 114065 -165991 
117 1 25.1627 32.462 3.97581 0.273431 414805 210596 8522.52 -164342 -245069 29727.6 
104 1 25.111 30.7749 5.82857 0.628726 319367 -119145 -149249 -30183 -254387 -41308.2 
115 1 23.3795 32.5657 5.79426 0.138647 -411726 -67166 417636 -211102 -95919.3 -137478 
108 1 28.859 30.7372 5.79387 0.159613 -11823.4 24790 -30581.8 -30729.9 358872 -95997.5 
119 1 26.994 32.5027 5.74922 0.15876 206538 -47911.4 -251222 46856.9 122277 107647 
166 1 26.9818 30.6535 7.41119 0.757275 -222196 -308957 -114087 322955 89149.1 47644.5 
106 1 30.635 30.8347 3.9853 0.221832 182379 194657 -231116 -183622 -392023 122933 
112 1 32.4541 30.8369 5.72562 0.384973 61712.2 29689.1 -32591.9 -383635 -287589 -234883 
189 1 32.5818 32.6102 7.45744 0.392121 -364027 -566870 -698005 235641 122083 -88782 
110 1 34.3976 30.8393 3.95243 0.291468 -101461 -311965 -186338 -393869 173252 52205.8 
127 1 34.3585 32.53 5.79615 0.233061 -172348 -1640.24 -329401 -216263 436449 -496907 
174 1 34.3102 30.6795 7.48312 0.427347 -148467 -515487 -617111 -70014 356290 -493957 
116 1 21.6428 34.5386 5.87119 14.9698 43508.7 364141 297491 -285859 -196617 541140 
1357 1 25.1451 36.1216 4.01809 0.25714 167305 215076 -54776.9 -166127 -152710 -137243 
120 1 25.1704 34.3291 5.75507 0.0759944 -79403.5 -158140 -9063.38 -472769 -34912 185070 
124 1 28.8337 34.375 5.76866 0.169083 173596 -266162 227021 160567 1710.23 164496 
1359 1 26.8999 36.0784 5.78888 0.334207 -247279 72894.9 59657.4 -57865.9 31625.3 288658 
1361 1 28.8281 36.0489 3.95084 0.224971 -28838.6 -885586 -959556 329655 -39989 308787 
125 1 32.5068 32.6521 3.94984 0.170685 185065 -28393.7 76673.9 152266 123061 -99981.5 
123 1 30.6287 32.6887 5.77559 0.43714 -131350 -215498 -165195 72645.3 1844.87 -505218 
1363 1 30.6884 36.0285 5.88203 0.68667 -77574.8 -347289 -407573 108653 210341 40749.3 
128 1 32.4965 34.3453 5.74492 0.210973 -317468 -706265 -609528 125185 -38430.2 87235.3 
4323 1 36.15 36.1141 7.48768 0.13131 -376945 -302578 -102902 -13374.8 417446 -323848 
190 1 34.4041 34.3452 7.45225 0.222604 -371984 -304401 -124826 -314867 492377 -545719 
2850 1 36.1319 34.3855 5.75609 0.186293 -75521.7 -174171 -282783 -204032 479118 -386344 
193 1 21.6595 21.9315 11.0058 27.4356 31660.1 280840 770459 -246252 21985.5 126722 
131 1 23.4002 21.7559 9.22614 17.0206 824171 -42948.6 506296 -365334 181373 -237029 
137 1 28.6714 21.5877 7.52674 15.5456 288446 492888 -69464.3 398411 -38481.3 -89433.5 
135 1 26.9817 21.6838 9.19358 16.0499 9019 195596 137068 132601 162567 277078 
201 1 28.7054 21.6986 10.9675 14.5427 1.25411e+06 286413 1.2681e+06 216499 -128664 179459 
139 1 30.7757 21.6752 9.243 15.3589 1.60356e+06 232396 1.42775e+06 -287735 238238 -45161.1 
143 1 34.3846 21.6109 9.35674 16.7653 418836 -199290 636684 -342352 -177836 -20500.2 
132 1 21.45 23.5197 9.14982 18.5346 949897 254144 626998 -37865.1 144077 246580 
149 1 25.2254 25.3311 7.53686 0.27005 136434 -21466.8 -296786 -3921.76 -57651.5 74256.3 
147 1 23.385 25.2606 9.35432 0.324933 -251370 -56389.6 -91790.9 518455 52637.1 289234 
136 1 25.2094 23.4571 9.24977 0.205094 -319691 -315723 -375395 82324.2 396091 -67932.7 
194 1 23.4936 23.4179 10.9718 0.725192 -906949 -1.37979e+06 -364744 -519764 322582 282354 
213 1 25.2593 25.1848 11.0746 0.332026 -363040 -76910.6 -100402 104968 -207594 13056.8 
151 1 27.0937 25.3456 9.28277 0.177419 205420 226977 18310.3 446174 -181769 -29384.8 
140 1 28.8193 23.4831 9.19635 0.297092 358455 -89037.9 88367.6 46010.7 -92926.1 211977 
217 1 28.8609 25.2629 11.0703 0.11876 -394894 249687 157079 -146589 -280744 83065 
198 1 27.0916 23.5644 11.0679 0.369958 -737037 -959090 -90229.4 126718 -160032 100244 
155 1 30.7426 25.3041 9.33963 0.236448 127436 334105 343560 -7159.1 -164173 -64041.1 
144 1 32.5659 23.3926 9.2984 0.107603 -55082.6 88217.6 608727 -370104 -27813 91589.5 
202 1 30.6772 23.3816 11.0504 0.367038 1.03863e+06 163124 469346 585.304 -17171.5 125352 
2883 1 36.1016 25.1527 7.6011 0.268406 -554532 -672169 -419618 -55144.6 -244707 -171128 
2868 1 36.1282 23.2822 9.2731 0.731784 -314937 -567112 -479574 -506223 301067 -16850.6 
142 1 34.3989 23.3486 7.53698 0.234495 -411251 -78432.1 -223855 -428003 -118347 505483 
159 1 34.3088 25.2103 9.47224 0.73449 136041 205107 201937 40736.5 3011.03 319947 
206 1 34.3955 23.4096 11.0992 0.281707 -374881 -722883 -396333 -103497 169359 143911 
161 1 21.5305 28.8258 7.56248 18.1151 121222 885672 866266 285202 -187005 209306 
148 1 21.6569 27.0143 9.26626 15.6281 -488394 372707 440407 -10927.3 439865 95061.5 
225 1 21.623 28.8159 11.0587 16.1105 -417579 181069 194529 -259947 150948 241891 
146 1 23.3112 27.0892 7.54949 0.387713 -804758 938.69 -410414 9313.45 326158 -99103.4 
152 1 25.277 27.0795 9.23321 0.279329 693376 22409.4 296730 63002.3 -20797.5 -176630 
163 1 23.2878 28.8665 9.29599 0.34399 -454766 -423438 -508945 -353532 126676 89455 
169 1 28.8733 28.976 7.53095 0.292736 43406.4 -168396 -118506 -192421 -104705 585195 
167 1 27.0639 28.9271 9.31485 0.131878 189225 587289 64121.6 30221.9 -191350 -250014 
156 1 29.073 27.1703 9.18765 1.03125 198573 -278206 28689.6 -113283 -242440 -121386 
233 1 28.8128 28.828 11.0966 0.660501 -4496.79 48945.3 289696 24841.4 51163.5 -302519 
173 1 32.5492 28.98 7.62548 0.378621 -877006 -676704 -251705 -587513 356723 -219160 
171 1 30.7938 28.8747 9.24131 0.386923 -637440 -876381 -1.0437e+06 -448579 198615 -113875 
160 1 32.5684 27.0105 9.24027 0.504614 -272223 -101568 -19097.7 46319.4 -308820 115761 
237 1 32.4823 28.8575 11.0657 0.241429 -68997.2 144023 469812 94188 -246087 77725.9 
158 1 34.4094 27.0783 7.54166 0.148865 64355.8 404224 -113348 3450.86 -71025.5 -504815 
175 1 34.4547 28.837 9.36572 0.391624 142186 188618 -358316 47955.7 -47597.6 -107571 
164 1 21.4751 30.6665 9.35158 18.2128 159645 1.2667e+06 1.01563e+06 113498 -386463 -18820.4 
162 1 23.4159 30.6827 7.65971 0.50556 210437 448259 -153700 -38536.3 -133904 135333 
181 1 25.309 32.5105 7.57559 0.499061 -314646 -398524 -243647 -358242 -36894.2 -212226 
168 1 25.1857 30.6225 9.37811 0.334557 143491 -12210.9 137081 86679.6 -458015 19986.4 
179 1 23.328 32.5321 9.28421 0.172128 435771 192830 225101 99565 -273132 -60778.3 
245 1 25.1106 32.4904 11.0437 0.225867 403751 66549.3 -187428 250183 66016.1 341472 
226 1 23.1911 30.701 11.0561 0.487852 -176129 48732.4 -81435.8 -446478 -501013 -115875 
185 1 28.831 32.5917 7.58472 0.182885 427289 350092 28885.1 -56425.2 209230 236659 
172 1 28.9426 30.7902 9.33725 0.486784 -246148 85263.8 -103101 1534.87 70188.2 -131806 
183 1 27.0319 32.4359 9.36678 0.30811 155687 574448 -23296.9 187278 -136289 432400 
170 1 30.7362 30.7155 7.63378 0.380591 8545.3 161039 -15679.1 60131.8 240497 -8192.81 
187 1 30.6764 32.5988 9.41598 0.442718 181667 -443654 100291 -306181 -141696 -54348.4 
234 1 30.7084 30.6077 10.9928 0.808832 -245457 113583 -318850 263052 9843.69 -158951 
176 1 32.6381 30.8169 9.30678 0.755306 -222855 12855.7 -236103 -672964 96356.5 -359974 
191 1 34.3471 32.4686 9.27365 0.221978 -325888 -105667 323163 -346630 -165199 -279320 
2991 1 36.1488 32.512 11.0885 0.166016 263300 -417705 -336987 142241 81394.3 189959 
177 1 21.4822 32.6792 7.5289 18.1854 656763 1.13302e+06 1.08633e+06 -212857 -50994.8 -261131 
180 1 21.628 34.4576 9.26755 16.901 235908 629737 596648 69041.3 103050 91615.9 
178 1 23.4376 34.3552 7.57579 0.304987 -155105 328824 -165897 -169508 120854 39324.8 
184 1 25.2035 34.387 9.43441 0.479054 54927.6 149775 71036.9 -65051.9 377032 -8400.1 
242 1 23.3987 34.3774 11.0796 0.0861325 -732478 320410 -453776 375130 558427 43002.5 
182 1 26.9155 34.2781 7.55292 0.446207 158635 -264075 51352.9 -393794 12791.9 -33167.7 
188 1 28.9078 34.4226 9.36743 0.343082 423579 375698 412201 49266.4 284988 -64411.2 
1437 1 32.5996 36.1372 7.54168 0.191529 -229381 -233039 42654.6 -166093 -147484 288998 
186 1 30.7336 34.2824 7.55263 0.285344 -184200 -721263 -1.20217e+06 -56530.5 -144568 -50106.9 
1435 1 30.7794 36.0819 9.36665 0.221133 286593 -17448.5 739183 104821 216954 74043.7 
192 1 32.5104 34.3278 9.25872 0.298111 -167832 60443.9 136154 80735.8 -169088 19306 
1439 1 34.4478 36.0602 9.30042 0.334583 235949 -119100 -336236 -56240.8 -36364.6 180726 
254 1 34.3887 34.2945 11.0607 0.218486 52742.5 -303983 3342.83 227178 151331 -94700.1 
197 1 25.347 21.7599 11.1805 14.0345 616841 -112870 295846 73870.7 -191164 -342671 
195 1 23.3981 21.798 12.8335 15.2118 -106722 -435891 31412.8 -177469 194275 -157703 
199 1 27.017 21.7719 12.9077 16.0458 92230.3 -124004 399598 -164506 -499242 -162766 
265 1 28.8398 21.5801 14.6492 19.923 1.32967e+06 858875 1.23247e+06 151067 88680.7 -16805.5 
205 1 32.5972 21.5834 11.2481 15.9493 954239 325590 1.01608e+06 -107938 99712.8 -413738 
203 1 30.7172 21.7073 12.8597 16.7585 1.19475e+06 427891 882950 -98168.1 139737 150595 
269 1 32.5084 21.6766 14.5938 15.298 812386 476876 1.03932e+06 -114678 94554.5 54857.8 
2937 1 36.0973 21.6165 11.1984 15.7984 739929 -6473.03 576140 337903 -263881 -230065 
207 1 34.382 21.5806 12.9559 11.4319 53480.1 528333 9774.88 -70410.8 29472.6 -13901.7 
3009 1 36.1211 21.5559 14.651 12.0364 735228 413693 715097 -25843.2 -178598 -12913.1 
209 1 21.634 25.1613 11.119 14.4622 96927.7 892975 351478 -27342.7 48952.8 89130.5 
196 1 21.6184 23.5144 12.9183 17.0523 266203 55364.8 531202 137153 -239683 -8731.46 
273 1 21.5223 25.2913 14.6426 12.1995 790629 934368 767780 -138406 -5696.68 -487804 
200 1 25.1927 23.4716 12.877 0.201516 -383332 -954404 -431972 -13682.4 388470 -330090 
211 1 23.4312 25.2986 12.8666 0.140401 -283040 -214181 -374617 125696 -353980 323531 
277 1 25.161 25.3277 14.6587 0.166797 -806577 -162325 -274091 -377686 -122870 -274237 
258 1 23.4874 23.4701 14.5943 0.517372 -864842 -1.07824e+06 -618043 -644740 -7319.05 -612955 
215 1 26.9979 25.3006 12.8644 0.169965 -49499.7 -518287 -689906 53387.2 -126613 -272236 
204 1 28.7473 23.4805 12.8788 0.355584 210612 -65313 359848 -277819 -255676 13127.8 
281 1 28.8429 25.2667 14.6674 0.128627 -93420.6 -369172 -507848 164218 -100687 241176 
221 1 32.4849 25.3088 11.1747 0.296783 -226345 18094.9 -816480 103382 82144.8 265640 
219 1 30.6527 25.3035 12.8194 0.214908 -100978 117079 -29794.5 25475.8 197087 277835 
208 1 32.5953 23.4873 12.7954 0.540556 200817 -711103 1111.43 -521827 164750 106387 
266 1 30.7172 23.5506 14.6589 0.334816 555022 -110718 443670 -26047 108728 -329811 
2955 1 36.1362 25.1741 11.1929 0.306245 -123933 176250 -12043.6 -183755 -165500 77424.8 
223 1 34.2324 25.2602 12.9272 0.269007 -382185 -230242 -79853.7 -526642 -70207.6 -199757 
212 1 21.5498 27.0214 12.7854 11.1223 151142 746676 643680 20985.8 161737 123250 
289 1 21.4869 28.8229 14.6553 17.832 283681 862261 937846 -57285.8 -156683 227489 
210 1 23.4155 27.0295 11.144 0.257591 -468571 -416172 -397964 -91632.4 -255802 -67203.2 
229 1 25.1755 28.8506 11.1014 0.136386 723600 -632621 -700109 -252856 327769 451794 
216 1 25.2316 27.1803 12.7792 0.527129 -705130 -207563 -777845 178388 -254776 507331 
227 1 23.3547 28.8641 12.8191 0.112642 -289743 -222497 -320249 -36189.8 -97747.7 -96253.7 
274 1 23.3993 27.0967 14.5599 0.202477 13699.8 -5270.9 -95873.1 252790 125136 -222932 
293 1 25.2198 28.969 14.6387 0.300583 413687 428187 353039 -137771 -72704.8 -44780.5 
214 1 27.1046 27.0338 11.1652 0.450211 226288 -248756 57762.9 -109061 130319 27876.3 
220 1 28.8722 27.0411 13.0377 0.632964 -487450 -92979.9 -75838.7 276268 -96202.5 449883 
231 1 27.1363 28.8889 12.9204 0.501639 87885.3 -112390 -385182 -57974.4 151305 -96132.5 
278 1 26.9426 27.0337 14.5852 0.617043 -207713 -303467 -451740 -106007 169521 255921 
218 1 30.6683 27.1223 11.1126 0.222732 19577.9 -147519 -21624.8 9247.3 -474308 227860 
235 1 30.707 28.9267 12.996 0.462509 -124601 -316770 -122954 12811.1 -353129 142101 
224 1 32.4606 27.0839 12.8776 0.0911272 -214060 -276167 -493808 167284 -76507.8 -303757 
3045 1 36.085 28.8171 14.6562 0.240893 192326 -2012.12 -476389 -81034.7 -184017 -137676 
2958 1 36.0678 27.0396 12.9482 0.158119 -433434 -174027 -535850 101933 -139243 -229657 
222 1 34.361 27.1278 11.1657 0.265661 269991 -33409.5 -161989 -56457.2 -186332 12328.2 
239 1 34.3511 28.9181 12.9062 0.180136 170415 -235866 -375637 323162 -178801 231276 
286 1 34.2748 27.0485 14.6494 0.0958564 -480461 777.56 -246893 -257302 293332 -46620.7 
241 1 21.4192 32.5889 11.1038 19.6164 859299 1.49841e+06 1.55427e+06 116006 -117299 -244363 
228 1 21.3692 30.608 12.8855 18.3387 792132 1.64438e+06 1.51386e+06 69244.3 -64523.1 70054.1 
232 1 25.1561 30.6589 12.7204 0.563307 387722 -97284.2 195823 -195521 127669 35172.3 
290 1 23.2646 30.6498 14.5952 0.382404 115341 168057 20799.9 -48015.2 242380 -370726 
243 1 23.3294 32.486 12.8212 0.228434 421118 306844 299379 239794 198521 -68105.7 
230 1 27.0653 30.6916 11.1013 0.125684 -163258 -278446 -502461 -63193.2 -54523.8 -23858.2 
249 1 28.8393 32.5024 11.1629 0.290742 -220149 -748824 -923922 88820.5 -108138 128738 
236 1 28.965 30.7466 12.7415 1.14086 -302089 -696626 -137349 -392053 -108310 388909 
247 1 26.9725 32.4732 12.8493 0.197867 521192 149604 28017.6 -129843 202511 -58346.7 
294 1 27.0138 30.7092 14.6281 0.140387 109704 -561121 657092 179414 -51768.9 94731.9 
253 1 32.5055 32.5005 11.2028 0.376025 201902 438165 155006 141983 -2092.97 -175774 
251 1 30.6743 32.4132 12.8566 0.42535 -564675 -87862.9 195137 -263736 -25351.8 205525 
240 1 32.4792 30.6383 12.9547 0.200744 -253463 -82211.5 172038 -82033 -178431 286838 
238 1 34.3802 30.6125 11.1538 0.356681 90961.4 -126472 -123475 223240 -234349 159334 
255 1 34.3513 32.4724 12.9306 0.155374 213583 -261478 -434281 179789 -138625 -36651.3 
302 1 34.2367 30.7908 14.664 0.372797 78648.4 93751.6 -822708 19998.5 -184114 351676 
244 1 21.7235 34.4388 12.8026 15.4705 40966.7 770739 570374 87259.9 349734 -20297.1 
248 1 25.1109 34.34 12.9195 0.380012 133678 590594 150102 179170 96548 -273832 
306 1 23.4452 34.2684 14.6633 0.204288 -837757 238979 -527761 -84914.7 575311 -65244.2 
310 1 27.0244 34.3205 14.5888 0.394737 356010 521273 493810 131547 -216566 145216 
246 1 27.1353 34.3612 11.1435 0.440206 415232 561077 342963 68457.8 -265351 141249 
252 1 28.8963 34.2657 12.8871 0.240527 365145 549367 139734 51130.1 -4505.87 -110038 
250 1 30.7775 34.3245 11.1613 0.238939 503906 42983.2 -136533 96788.5 28579.6 -106593 
256 1 32.5594 34.3198 12.9959 0.262308 -24675.6 -137007 -553442 -95584.3 -213542 361378 
318 1 34.3515 34.1843 14.6634 0.544552 -502419 -318155 -581494 -194747 -224498 -101560 
1511 1 34.3746 36.0708 12.8352 0.478355 -620616 5633.67 -522795 -249226 -766503 392346 
1509 1 32.6458 36.141 11.2567 0.685108 -542308 -88005.6 -166409 -123657 -524918 149883 
257 1 21.8737 21.7278 14.7446 26.6771 234797 247819 675380 -302093 96653.8 -112736 
261 1 25.0956 21.5809 14.7273 10.0196 1.33726e+06 373468 1.15865e+06 269071 -185832 -205012 
259 1 23.4018 21.5886 16.6418 16.1438 -111876 522147 595411 17161.8 -128383 -219756 
263 1 27.0339 21.591 16.3877 17.3699 887609 259593 847454 142721 -53505.1 286258 
329 1 28.8306 21.7104 18.2241 16.6434 474483 -206609 497241 -18933 93676.9 131982 
267 1 30.7546 21.6423 16.4606 17.244 925668 175374 1.20303e+06 -252426 24485.7 -224967 
333 1 32.5799 21.6212 18.2368 16.8295 824676 -7602.29 349063 -128092 -111093 194661 
271 1 34.3444 21.5765 16.476 18.3477 701452 314266 644604 5530.82 5753.87 86864.1 
3081 1 36.0316 21.6111 18.2477 16.271 1.15719e+06 438870 1.14842e+06 329223 -227099 59496.1 
260 1 21.6725 23.4383 16.5162 16.7657 248229 -16629.7 426266 -222839 -220927 26508.4 
264 1 25.1449 23.4039 16.4723 0.259177 -129393 -345054 -177712 245329 75467.8 -383656 
275 1 23.4319 25.1716 16.3999 0.442837 -816799 4094.35 -302718 73642 448510 146409 
341 1 25.1815 25.1687 18.2246 0.565487 -93708.9 -130001 27797.5 -334291 332705 24432 
262 1 27.0023 23.4306 14.7659 0.366155 680638 -157702 -58501 1162.46 163566 -328105 
268 1 28.9149 23.4243 16.4576 0.228978 220476 -88075 -113675 -157333 -67203.6 224068 
279 1 26.9807 25.2955 16.357 0.336999 326165 201128 -220398 73557.2 -98420.8 -65024.8 
326 1 27.0342 23.435 18.1804 0.15797 -160710 -73152.1 339150 172884 347265 179234 
345 1 28.7808 25.2441 18.2078 0.308242 80153.9 95910.2 289827 166074 178511 -120559 
283 1 30.6389 25.2794 16.3789 0.241097 -17593.6 -268136 -300016 -209570 167937 -374826 
272 1 32.4933 23.361 16.5602 0.483275 56270 -329589 -46814 -348752 128180 117705 
285 1 32.4705 25.2653 14.709 0.14614 -386625 -140908 -138557 -419103 392702 -430279 
330 1 30.6635 23.4268 18.241 0.0869688 -218497 58980.6 -307499 -166052 -30163.9 108846 
3027 1 36.1239 25.2089 14.7136 0.104672 -318286 -146286 -169325 -226552 -48519.9 243705 
270 1 34.3334 23.426 14.758 0.226503 319038 -187581 283535 -255723 -276355 -135670 
287 1 34.3195 25.2146 16.4798 0.0909379 -116017 -37863.9 -450580 119892 66027.9 16012.9 
334 1 34.3983 23.4657 18.2278 0.341393 -334864 -493278 355692 -2828.53 -16008.7 366157 
276 1 21.6399 27.0062 16.3717 16.3376 340658 388498 797567 -273797 258218 -132900 
353 1 21.6385 28.8741 18.2082 16.3287 98475.8 983642 754927 105830 306599 -148591 
280 1 25.1688 27.0952 16.4471 0.123822 395904 363994 261693 213307 383129 -246590 
291 1 23.2907 28.8093 16.418 0.513417 -277604 129696 119356 72571.6 254647 228999 
297 1 28.7834 29.009 14.7646 0.701347 -389428 171259 -354076 213598 -183828 167964 
295 1 27.0353 28.9376 16.4764 0.0890592 215403 807090 337027 39037.2 442218 93611.8 
284 1 28.8807 27.1304 16.3612 0.360291 225345 -105885 287313 31006.7 211235 69382.9 
282 1 30.6926 27.1293 14.6794 0.154882 -825560 -361154 -919654 -398115 -73758 339068 
301 1 32.4266 28.8452 14.6977 0.271277 -481197 -704256 -665454 -149953 -317079 34901.8 
299 1 30.6318 28.94 16.4487 0.158959 -281093 -188862 -601166 -384388 43894.2 69711.3 
288 1 32.5031 27.0118 16.3941 0.282296 59918 24874.3 -464842 -38955 -60412.1 -221276 
365 1 32.483 28.8787 18.2256 0.1113 6238.94 30470.5 146310 257043 237129 -347284 
346 1 30.6885 27.0095 18.2123 0.192371 669610 139659 153639 24967.2 99418 -183569 
3030 1 36.0951 27.1269 16.4329 0.202005 -265091 -110784 -158920 -164308 99858.8 80673.6 
303 1 34.3216 29.0085 16.4496 0.53682 -178251 -100313 259092 -193278 250585 337307 
350 1 34.3056 27.1597 18.1799 0.51276 135669 325865 454647 8966.45 37420.5 -217642 
305 1 21.5746 32.5915 14.732 17.7388 112289 775775 697574 -56327.6 -321168 -184259 
292 1 21.5982 30.6919 16.394 16.0187 130990 845763 1.18286e+06 -87278 426815 246213 
296 1 25.1423 30.747 16.4969 0.202434 328957 -183664 -102184 391867 128580 536023 
307 1 23.3675 32.4127 16.3924 0.69143 -867547 -235635 99164.5 392155 122327 129890 
309 1 25.1605 32.4058 14.7454 0.540236 48350.3 287093 -62162.4 350539 347229 405605 
311 1 26.9683 32.5445 16.508 0.198785 -244984 -283481 -263281 70217.5 -247012 269177 
300 1 28.828 30.8302 16.5577 0.402457 -231035 -304477 -433797 10140.8 448452 -94642.6 
313 1 28.8127 32.4763 14.7037 0.200366 291089 140389 84944.6 165788 -158591 198790 