ITEM: TIMESTEP
7200000
ITEM: NUMBER OF ATOMS
5780
ITEM: BOX BOUNDS pp pp pp
1.9026234173611685e+00 7.0397376582654388e+01
1.9026234173611685e+00 7.0397376582654388e+01
-1.9990978280670721e+00 7.4299097828082608e+01
ITEM: ATOMS id type x y z c_csym c_2[1] c_2[2] c_2[3] c_2[4] c_2[5] c_2[6] 
3 1 23.8953 22.4312 -0.104851 14.6618 -390292 -667726 5798.93 -58688.7 -98684 208187 
4 1 22.1038 24.0106 -0.0415983 17.5836 -66921.1 98535 993829 141241 151542 -153358 
1 1 22.1866 22.4302 -1.92893 28.4873 293991 457340 1.16696e+06 -355798 -157766 -285604 
2 1 23.9085 24.034 -1.90021 0.293406 -202756 -714989 364463 -677195 29417 526347 
65 1 22.3072 22.2949 1.77511 28.5603 460167 462629 958786 -246938 253604 -33582.3 
7 1 27.4487 22.1289 -0.160773 15.5473 995477 316449 1.26435e+06 -307180 262689 -90193.6 
8 1 25.732 23.9826 -0.0859362 0.289121 26700.1 -614212 214575 -774641 -132425 210683 
69 1 25.6491 22.1213 1.71408 17.4463 1.05702e+06 34896.8 1.055e+06 94704.8 138066 -112252 
11 1 30.7784 21.9745 -0.0764053 16.1786 812390 260443 1.22767e+06 -98845.8 -172343 30934.2 
12 1 29.15 23.8432 -0.249739 0.599349 169817 -653490 914974 -311250 108710 452604 
16 1 32.5955 23.6172 -0.118456 0.378414 584288 16462 404545 -224881 211571 -37777.2 
15 1 34.5273 21.8945 -0.0202487 15.1787 1.63295e+06 332924 1.49745e+06 -310496 46505.9 91170.1 
77 1 32.4874 21.8521 1.68847 15.2062 1.53695e+06 467342 1.20346e+06 368682 -111212 88476.2 
13 1 32.6403 21.8941 -1.9869 17.4331 1.10695e+06 11005.1 1.88713e+06 -140104 -158595 -176113 
14 1 34.3761 23.5508 -1.92182 0.589628 276312 26669.6 1.11614e+06 -401172 -83093.9 353285 
19 1 23.7675 25.797 -0.0401402 0.724363 57391 327947 261132 -409113 -192283 -574274 
20 1 21.8574 27.4392 -0.097595 18.2187 641002 1.45045e+06 1.40585e+06 34198.8 -161701 -213422 
82 1 23.6602 27.3778 1.78402 0.998517 -54553.9 -164456 371956 -398200 324765 -287366 
17 1 22.0627 25.7936 -1.95298 14.8865 -52048.2 1.23255e+06 1.13364e+06 -488743 -32410.3 -45552.1 
23 1 27.4766 25.6981 -0.0515818 0.366679 -1.22813e+06 -472783 -91911.7 -377681 167195 -98212 
24 1 25.6883 27.4164 -0.113183 0.258114 -172746 -931650 50561.1 38086.7 -75098 -48480.2 
85 1 25.6959 25.6938 1.70918 0.565214 -36871.5 63095.9 261963 -712435 135765 -98580.7 
21 1 25.7429 25.6911 -1.85322 0.956887 -296130 -702316 136215 8394.69 -196885 130964 
86 1 27.4501 27.4275 1.79201 0.241599 -489695 -320618 273341 -240439 79771.2 -473971 
27 1 30.9038 25.5646 -0.193686 0.345631 -631863 -469091 -2627.38 -578588 -90969.1 84120 
28 1 29.1763 27.3793 -0.0797767 0.164121 -999990 -486545 -144477 -397938 46094.6 -178211 
89 1 29.2529 25.5854 1.80868 0.239665 -242006 -656369 257567 -594586 -186451 105091 
90 1 30.8977 27.2673 1.71208 0.28105 -910543 -466184 102244 -329745 303692 -140800 
25 1 29.088 25.5433 -1.95808 0.415829 -1.03839e+06 -1.05015e+06 -439166 -621804 -104852 424307 
26 1 30.8437 27.2718 -1.95827 0.190823 -136333 -391752 -174560 -369797 75200.6 200431 
32 1 32.6413 27.2066 -0.139196 0.302364 -177690 -130573 109211 -378082 -51498.9 242444 
31 1 34.4815 25.4298 0.0655625 0.75319 299697 708327 397857 265900 242997 -176664 
93 1 32.6295 25.4064 1.72469 0.419603 -106713 215741 377021 -562215 347401 116883 
94 1 34.3542 27.2665 1.75872 0.336426 482297 27236.2 459419 -145999 -35647.5 -47709.2 
2739 1 36.1006 25.4039 -1.91033 0.605873 -271092 -156835 -10489 182938 -536791 250898 
30 1 34.5473 27.3621 -1.8681 1.00899 89106.1 -58217.5 247900 85945.1 -75314.3 4346.76 
29 1 32.7205 25.4681 -1.97011 0.241646 474223 318555 343738 -29282.1 456290 55289.9 
35 1 23.8365 29.0285 -0.151747 0.435515 146841 546849 868125 98711.4 239638 294401 
36 1 21.9657 30.7708 -0.118617 16.5014 340323 1.17454e+06 962610 -98623.2 367058 -222174 
34 1 23.655 30.8668 -1.93461 0.748975 158196 60425.3 885795 50707.6 227389 -114541 
39 1 27.4025 29.1426 -0.166878 0.160684 -210070 -173848 1.13613e+06 -125012 -30779.7 -672.119 
40 1 25.6162 30.7888 -0.116199 0.365608 181142 149174 633602 112062 67823.3 -347898 
43 1 30.9201 29.1186 -0.202167 0.398608 -49037.7 -52778.8 166650 -205844 486420 148457 
44 1 29.1057 30.8918 -0.116639 0.170308 98851.6 12760.6 1.00265e+06 186316 19554.2 -1058.56 
42 1 30.9263 30.9245 -1.91454 0.264741 -205757 -518693 -66327.4 -775645 -147838 475944 
45 1 32.6423 29 -1.90474 0.339468 -414144 47476.4 -22014.9 -149987 622094 74171.3 
47 1 34.4879 29.0827 -0.0273751 0.363296 596111 -7532.18 196634 -111029 -132302 67270.1 
48 1 32.6195 30.9965 -0.121199 0.639112 -601873 -586813 -657126 -306421 138068 75294.1 
46 1 34.3074 30.8652 -1.86396 0.538912 318513 294010 235443 171216 134094 -266874 
2760 1 36.1275 30.9291 -0.107016 0.165308 -219929 -78525.4 194074 -43880.9 -436137 -389858 
51 1 23.7311 32.5209 -0.103961 0.4022 -274331 189740 272038 -166261 231740 -474518 
52 1 21.9868 34.3342 -0.3193 14.8305 323952 721207 1.03704e+06 -87123.9 212801 -237751 
113 1 21.9245 32.4452 1.65409 15.1244 577074 1.45086e+06 1.09954e+06 -13531.9 136271 -574648 
114 1 23.6717 34.3531 1.71789 0.233855 -156652 208590 468874 -223931 615383 48328.6 
55 1 27.398 32.5957 -0.149913 0.504708 28059.1 93353.2 307911 226729 343789 -316083 
56 1 25.4645 34.3555 -0.155613 0.197596 694887 719777 309093 -255356 -79824.5 -192171 
117 1 25.5404 32.5935 1.76868 0.133342 -657469 -592902 288543 -265817 -186442 -56426.1 
118 1 27.2456 34.3604 1.66786 0.346653 -24234.8 339666 525103 -337760 26746.4 -71863.8 
54 1 27.2764 34.4799 -1.98314 0.199263 -70660.9 24352.8 62098.4 179461 46630.2 -83722.6 
53 1 25.4095 32.632 -1.98621 0.521837 588412 158634 567086 51042.6 270694 32247.6 
1361 1 29.1251 36.038 1.74836 0.57695 -322565 -489412 -444961 122214 230518 154430 
60 1 29.1394 34.5117 -0.118619 0.350606 -113643 -853679 -606064 -117312 162745 -175704 
59 1 30.89 32.7422 0.0129185 0.355018 -491268 -415270 -300555 228689 535972 -260946 
121 1 29.1018 32.6909 1.79823 0.123811 -227966 140010 233740 16350.3 211417 -139566 
57 1 29.0689 32.7487 -1.93957 0.378713 -190243 -316390 44575.2 -399342 407181 318732 
2847 1 36.0407 32.6822 1.70772 0.599955 -540362 -823303 47567.4 81397.5 263702 129224 
64 1 32.6071 34.5282 -0.0699415 0.429293 -653669 -1.15278e+06 -313848 233209 205693 247827 
63 1 34.3392 32.7061 -0.161688 0.4075 -1.04731e+06 -405377 -381132 -447531 -94447.2 -167156 
125 1 32.8168 32.6131 1.74731 1.19792 -727901 -870617 -313634 179928 -321000 -199932 
2778 1 36.0805 34.444 0.000171586 0.496804 -987755 -1.41696e+06 -544312 441805 -171524 -260052 
1293 1 32.6554 36.0993 -1.9004 0.387208 -765060 -514078 -23641.3 152988 158384 369080 
61 1 32.5123 32.7197 -1.81946 0.886399 -811243 -673197 -614595 -7313.21 -540877 404483 
66 1 24.038 23.9431 1.83459 0.517225 -467248 -1.05676e+06 -6731.59 -643863 -4082.57 -366903 
67 1 24.0298 22.2286 3.69869 14.6582 88021.6 -194235 1.20844e+06 -815922 -142052 193502 
68 1 22.1549 23.9038 3.67283 16.3525 370516 263263 553606 -43390.4 -117005 483784 
130 1 23.8668 23.9958 5.60834 0.36866 -678214 -844764 647559 -1.02944e+06 -303086 368383 
70 1 27.4842 23.7976 1.83066 0.275452 177723 104659 344006 -230244 -312252 -185825 
71 1 27.5206 21.9857 3.74124 16.1517 915095 231714 857598 -103330 -182550 -140289 
72 1 25.7432 23.7549 3.67728 0.414163 -862976 -733056 709989 -1.05362e+06 -268113 -122483 
134 1 27.4147 23.7143 5.62157 0.203887 481569 95640.1 679079 125254 32068.4 -127412 
73 1 29.1147 21.9066 1.83392 17.7864 1.01484e+06 684865 1.16689e+06 80250.3 164372 -105933 
74 1 30.902 23.7336 1.85631 0.328636 -166100 -492981 583116 31882.6 204841 -154412 
75 1 30.8227 21.9542 3.6866 16.5063 558651 311190 539749 -230861 546404 123225 
76 1 29.1214 23.8756 3.66054 0.620828 -477790 -590362 -293475 -45019.9 -195800 157641 
137 1 29.2264 22.0716 5.46336 14.8378 -149728 -175545 652807 -271408 -37902.1 68241 
138 1 30.8909 23.7402 5.57368 0.1947 -169276 -892890 849087 -351788 -269870 179237 
78 1 34.5574 23.5965 1.89222 0.662269 963673 243738 662875 42555.8 71710.5 76170.4 
80 1 32.7114 23.5547 3.61523 0.705506 35121.6 186745 523904 -91747.8 -252181 224962 
79 1 34.5573 21.8233 3.69733 18.1537 1.36234e+06 283766 1.20479e+06 16273.7 331178 98861.8 
142 1 34.4244 23.6655 5.4583 0.562813 -224907 -291281 455338 -240801 109062 279772 
141 1 32.6668 22.0031 5.62933 15.8297 715892 -160713 779222 -223952 145582 -50305.7 
81 1 21.9951 25.6334 1.96605 17.2077 561190 738834 890169 -530972 23856.9 -113128 
83 1 23.9948 25.5986 3.75033 0.679399 2471.05 -49882.9 560813 -237322 -53325 168893 
84 1 22.1499 27.2578 3.78369 13.7062 -26422.3 261884 347552 -207115 157956 -45660.5 
145 1 22.088 25.674 5.62579 16.5401 298734 1.1443e+06 1.09021e+06 217511 -8897.03 298018 
87 1 27.3579 25.5503 3.73516 0.490745 184774 56849.5 904301 169123 -157147 -278108 
88 1 25.6327 27.3974 3.73849 0.297808 215665 -326240 263974 -650111 132872 230534 
150 1 27.4596 27.3256 5.59432 0.176687 -183563 -423939 352983 -410925 -20347.4 80866.9 
91 1 31.0263 25.4699 3.73545 0.502505 -700852 -371033 18505.9 -411737 50171.4 25167.4 
92 1 29.3507 27.2882 3.62901 0.874869 140173 -458916 -233651 -154764 86056.1 71770.1 
153 1 29.2493 25.5843 5.50271 0.587387 -249287 -158442 570025 -42194.9 5474.82 -186014 
95 1 34.4098 25.4901 3.65295 0.216151 62306.9 92010.8 651148 19296.9 79761.3 110901 
96 1 32.6486 27.218 3.72411 0.17008 103298 -159026 1.02824e+06 -486776 34559.4 243417 
157 1 32.6892 25.4815 5.60941 0.0953754 355551 497194 414324 -42728 -240534 409538 
158 1 34.4773 27.3422 5.57369 0.300134 -122676 -142836 282290 -156097 13792.2 438099 
98 1 23.9189 30.8031 1.82875 0.844104 47195.5 -371208 427307 -220741 -90737.8 72151 
97 1 22.0017 29.1964 1.86443 14.5489 293892 1.24364e+06 1.18299e+06 96896.9 -236598 -80901.3 
99 1 23.6507 29.154 3.77004 0.909652 -625908 -179775 280523 -164790 148061 285900 
100 1 21.9488 30.8297 3.80588 16.2165 307120 348481 1.26895e+06 289059 -3171.22 -142108 
161 1 22.0304 29.1211 5.61724 17.4772 220139 1.06805e+06 733218 48694 366605 378600 
102 1 27.2802 30.9186 1.91271 0.684157 475636 -205966 129583 193920 -60084.4 -731402 
101 1 25.584 28.9887 1.87615 0.627107 92138.2 -81713.6 602570 508310 -275280 215659 
103 1 27.4242 29.0438 3.72565 0.291543 106184 361472 164352 -505083 -101743 26757.8 
104 1 25.5137 30.8578 3.78933 0.386027 -319323 122334 -135650 -321373 -24945.5 396728 
166 1 27.2841 30.9813 5.62914 0.342205 305341 -3120.5 714681 -495214 -47476.3 316200 
165 1 25.6733 29.1481 5.55957 0.398595 -84030.1 -580256 347909 -458244 -52936.3 137026 
106 1 30.8961 30.9167 1.81812 0.172227 115436 46979.5 556136 83768.5 -139971 199613 
105 1 29.2499 29.0626 1.81798 0.400568 46081.8 -110737 503188 -397879 -84612.8 40407.8 
107 1 30.8912 29.1275 3.72233 0.09246 -243599 75369 468889 -631541 166304 106569 
108 1 29.1164 30.9632 3.76522 0.299065 -194249 73372.8 886290 -81540.8 -147079 214875 
169 1 29.1397 29.0658 5.56627 0.374692 -106928 28198 274613 -296755 154606 475788 
109 1 32.6078 29.0999 1.85566 0.144595 151190 427693 1.00029e+06 1768.68 14130.3 -81761.4 
110 1 34.3824 30.8551 1.87014 0.268327 -227455 -725725 465122 311837 7649.77 -276466 
111 1 34.3472 29.0316 3.74975 0.197739 298325 -60957.9 137365 -378596 -194324 80527.8 
112 1 32.5713 30.9334 3.70589 0.303892 -177378 199533 403413 -30103.2 -263547 -108783 
174 1 34.3458 30.8603 5.49475 0.682672 -227019 558741 85034.8 165217 669028 -207620 
2832 1 36.0166 30.8991 3.88018 1.34229 -848454 -419859 -76130.1 115748 620999 158442 
2829 1 36.1291 29.0356 1.9031 0.411215 -753508 -492697 527432 -67747.1 -187130 -67184.3 
1355 1 23.7383 36.0898 3.66999 0.364866 -498965 -127201 73857.2 -865369 224339 155845 
177 1 22.0124 32.636 5.53495 17.3412 539146 1.08928e+06 1.25195e+06 -122862 66253.5 -137557 
115 1 23.7134 32.5739 3.54958 0.493108 -18934.1 114594 548527 187926 249095 -244170 
116 1 21.9534 34.3337 3.42624 16.1116 175284 1.28616e+06 1.37899e+06 56654.8 488485 45683.9 
178 1 23.7873 34.3609 5.45318 0.34407 -381449 -584520 943467 300532 176308 412002 
119 1 27.2704 32.5389 3.58179 0.874635 -415495 -980382 -223153 447437 28488.4 -604874 
120 1 25.5933 34.3069 3.65081 0.483679 295504 144581 239039 245640 276285 49277 
182 1 27.3792 34.4121 5.53515 0.341483 -254103 18300.8 907018 -30911.9 -315393 131059 
181 1 25.5344 32.769 5.58563 0.408254 -320083 -634532 538410 274483 203477 347034 
122 1 30.956 34.3765 1.83015 0.379333 -382111 -263132 -185583 -171321 142395 -295985 
123 1 30.832 32.6442 3.76463 0.203852 -75178.5 -326106 804411 -265321 -219526 124448 
124 1 29.0706 34.4716 3.57644 0.430425 284912 -69056.6 310323 386277 266768 181616 
186 1 30.8699 34.5293 5.61416 0.247561 362812 469641 713599 -150551 183937 89428.4 
126 1 34.3864 34.4444 1.88275 0.372049 -895124 -1.0515e+06 65044.8 -50409.2 249358 242543 
127 1 34.4113 32.6811 3.61319 0.497837 -245092 -808543 -242996 504414 -218812 137821 
128 1 32.617 34.3721 3.74281 0.274167 -171914 292842 212600 138332 -30867.9 160638 
190 1 34.4075 34.3922 5.55301 0.245246 54613.3 289072 686471 -161868 -36213 49536.9 
129 1 22.1307 22.4759 5.65025 27.3012 237461 155693 1.09954e+06 -687947 -241841 243558 
131 1 23.7931 22.2949 7.52508 15.2471 296253 225720 1.44807e+06 -561271 -163411 62407 
132 1 21.9575 23.9966 7.6611 17.6982 671157 653213 1.56628e+06 -150943 -22483.5 -510111 
133 1 25.6229 21.9902 5.67369 19.474 1.48633e+06 698930 1.33986e+06 -341230 -247826 -81766.6 
135 1 27.4034 21.9535 7.53611 18.9786 1.51344e+06 539220 1.69838e+06 -133902 -286806 -4247.75 
136 1 25.6219 23.7763 7.52311 0.241778 74729.9 -206981 708937 -813974 61091.9 5292.06 
139 1 30.9647 21.9283 7.422 18.0064 1.27561e+06 645051 1.27161e+06 -80480.5 308915 127435 
140 1 29.1465 23.7441 7.61544 0.585867 -28713.4 31884.3 505257 -6166.62 -281697 18927.2 
201 1 29.2265 21.9475 9.38423 18.181 1.02564e+06 149360 1.26746e+06 -140625 -160450 247934 
202 1 30.8686 23.7659 9.33988 0.273711 50458 -185199 376640 4728.22 -372804 295491 
144 1 32.7459 23.7404 7.43681 0.188922 444736 -326511 431222 267600 -92011 -88430.6 
143 1 34.461 22.0371 7.45371 17.3661 833664 -88876.6 1.43287e+06 77544.9 -50090.3 -6671.49 
205 1 32.6855 22.038 9.44072 16.7033 1.08899e+06 235399 1.22509e+06 -69003.7 70082.4 -163624 
206 1 34.4677 23.7486 9.3592 0.10298 -445377 -744696 634124 -361195 149641 -12874.7 
146 1 23.925 27.4679 5.6676 0.522818 -368844 214541 366825 -85747.8 36501.2 26056.8 
147 1 23.771 25.6809 7.62117 0.543435 -353146 -129882 337961 234417 45343.9 -164020 
148 1 22.1463 27.4312 7.51962 16.3108 -605591 203302 895392 -63371.1 -203814 145826 
210 1 23.8548 27.4072 9.36223 0.174152 387150 204815 -36745.3 -306263 -339309 196686 
209 1 22.0087 25.6954 9.43481 18.4507 438646 1.02336e+06 771222 -192644 231947 -335660 
149 1 25.6397 25.6174 5.74416 0.495986 -86465.4 -177715 329382 -530050 -375687 -268434 
151 1 27.4401 25.517 7.5069 0.168714 -88921.4 39382.2 495804 467923 -223438 -25741.9 
152 1 25.7301 27.3126 7.48633 0.387652 103273 -107885 -91994 -130551 -275206 -281396 
214 1 27.4104 27.3738 9.34466 0.169018 -422836 -207115 378660 -141732 -144717 35601.6 
213 1 25.729 25.5921 9.36276 0.274554 -240836 -210925 212942 -667688 49281.1 371298 
154 1 30.8692 27.3247 5.68997 0.364905 -794800 -511628 231910 -570193 -13299 57777.1 
155 1 30.9024 25.5637 7.54501 0.235264 170748 -42274.8 137089 -152083 25153.5 137465 
156 1 29.2031 27.4385 7.48311 0.236979 -262593 325284 -220521 303351 -22051.9 308791 
218 1 30.8606 27.3546 9.3057 0.374176 -822021 -612874 176530 -549635 -27611.4 -170290 
217 1 29.173 25.6181 9.40253 0.160155 -321499 -351706 -100724 -31921 180217 -146430 
2886 1 36.1415 27.2774 7.53941 0.0935309 -371254 -149742 982557 -600263 -123482 -55562.9 
159 1 34.4649 25.6246 7.48572 0.406778 -678806 -98872.2 302391 -377419 149974 187718 
160 1 32.6715 27.3329 7.50047 0.179294 -198549 -699919 -222343 -216968 -91837.2 315834 
221 1 32.7313 25.5466 9.30316 0.351801 -85354 -22553.5 387067 -381509 -194448 99788.6 
162 1 23.8863 30.9259 5.69576 0.668283 -337474 579723 121931 -21195.9 -35065.5 -123256 
163 1 23.8008 29.1209 7.58579 0.291732 -22423.9 -627124 359608 -871590 -172742 -6827.74 
164 1 22.0504 30.9981 7.45415 15.3502 590324 1.50757e+06 1.4954e+06 -59920.3 120154 164343 
226 1 23.7941 30.853 9.40788 0.367098 -218943 380585 290200 -195317 119831 -169594 
225 1 21.9487 29.2123 9.43681 19.2267 421352 1.47214e+06 1.5077e+06 -255750 146152 -62573.1 
167 1 27.4059 29.1667 7.4234 0.305814 145884 74205.4 613712 -246575 136391 74536.6 
168 1 25.4654 30.9546 7.516 0.532779 -129378 -45804.7 -243802 -239225 -298209 -186142 
229 1 25.6759 29.1854 9.37565 0.235139 -172974 -294911 347670 -243059 -348027 188247 
170 1 30.8558 30.9442 5.71234 0.138283 187793 -132169 280073 -287769 -185324 382179 
171 1 30.9437 29.2763 7.55702 0.853913 -1.04707e+06 -680380 -593970 -459168 -223114 228967 
172 1 29.0938 30.9479 7.65815 0.429133 -82862.8 82161.7 367076 -19376.7 14834.4 -193494 
173 1 32.5927 29.0572 5.73977 0.449829 -66502.5 98337.6 405380 -315314 246667 334373 
175 1 34.3754 29.1149 7.56483 0.18806 65190.5 381629 689516 -356937 -66866.8 -99435.3 
176 1 32.5774 30.9435 7.59741 0.223164 -1.01369e+06 -1.31621e+06 262203 -590110 -376896 256038 
237 1 32.5397 29.0797 9.30652 0.682778 -724008 -257593 -336372 -210162 -309820 178316 
180 1 21.9721 34.3759 7.52187 17.9203 342352 1.38459e+06 1.69249e+06 320061 -204709 11667.6 
179 1 23.8062 32.8053 7.49367 0.572044 -679585 -694140 580601 -81965.3 -9695.19 -404261 
242 1 23.7702 34.4382 9.3575 0.18138 -38221.9 165766 86899.5 -332592 211178 -205776 
183 1 27.2771 32.7246 7.59684 0.307736 -784376 -85401.2 -228219 -104387 453254 -65670.9 
184 1 25.5076 34.4517 7.57605 0.514673 -279699 -181614 743817 -298568 211987 -14200.5 
245 1 25.6388 32.5983 9.34823 0.61258 -240603 -661143 -577695 419703 385030 275018 
246 1 27.3928 34.5612 9.36753 0.550781 18015.9 46715.7 127842 -191384 182196 -367358 
185 1 29.0555 32.7227 5.75491 0.516998 80829.5 -280129 811967 335920 211615 -385733 
188 1 29.0647 34.4331 7.49492 0.324445 -205385 -298469 -21645.5 -275708 141042 -102376 
187 1 30.9635 32.7267 7.57644 0.433506 -620274 -142333 45783.2 70676.1 87854.4 -156774 
249 1 29.1147 32.7413 9.34193 0.438684 -149738 -623059 36359.1 80905.9 -128351 -51827.5 
189 1 32.6044 32.6618 5.69406 0.236368 -217260 -74185.3 301464 -266882 17898.7 142241 
191 1 34.3834 32.5678 7.50382 0.38905 336454 605881 784986 -97270.5 -146837 86003.8 
192 1 32.6147 34.4978 7.53974 0.129856 222965 85976.6 926872 -560167 -194680 116710 
254 1 34.4379 34.4389 9.38589 0.168881 299454 676241 420143 -464857 227492 258102 
253 1 32.6523 32.7336 9.4391 0.122241 -74798.1 -174027 -366768 -87427.5 -342508 -97467.6 
194 1 23.9488 23.9758 9.51245 0.497218 -312330 -390614 375787 -377985 16587.1 81271 
193 1 22.1953 22.2236 9.59307 30.9168 847015 817160 1.24908e+06 20720.3 -198334 -351645 
195 1 23.8713 22.2101 11.4017 15.963 -135407 42591.5 159302 188840 253082 -47755.4 
196 1 22.1681 23.9306 11.3576 16.9275 151859 733639 1.1857e+06 219497 -48160.6 -332506 
258 1 23.8616 24.0011 13.2059 0.532229 -1.19127e+06 -1.06729e+06 361134 -563020 -127801 -453497 
197 1 25.5417 22.0864 9.51387 16.9012 1.19077e+06 190949 1.26887e+06 -12865.9 -28797.4 -51758 
198 1 27.4421 23.7008 9.4534 0.427289 21115.2 -209330 -47194.8 -15523.6 276141 303280 
199 1 27.3996 22.0891 11.2873 17.6628 1.13034e+06 162946 951491 -36150.1 -280017 447682 
200 1 25.7033 23.9368 11.2751 0.226226 -169528 -622732 23791.5 -372435 39630.4 -103480 
261 1 25.6188 22.228 13.2563 13.7436 1.27351e+06 192901 608546 194042 -219821 -346924 
262 1 27.572 23.9141 13.2242 0.839993 83989.1 -482004 -21090.1 160456 -126913 96693.5 
203 1 30.9338 22.0663 11.2816 16.9019 1.02387e+06 264904 1.0711e+06 -92134.7 101336 45312.6 
204 1 29.1679 23.8615 11.2792 0.152126 -587426 -330076 312595 -319895 -3051.66 346425 
266 1 30.8487 23.7445 13.2292 0.350276 490929 -187326 265526 -529113 -99090.5 207308 
265 1 29.1154 22.0405 13.1403 17.9505 727536 -108915 1.29796e+06 -33977.4 -112572 17001.3 
208 1 32.7262 23.7698 11.258 0.188933 140708 -283027 918719 -405304 -75739.8 -217188 
207 1 34.5181 21.9693 11.2337 17.8445 842206 452573 1.06103e+06 -128159 230922 110732 
270 1 34.4262 23.8307 13.174 0.246875 251110 202595 422506 -487783 -13814.4 83552.1 
269 1 32.7659 21.9593 13.1916 17.1645 1.42908e+06 551099 1.36906e+06 -234410 -143257 -136313 
211 1 23.923 25.7907 11.2957 0.321777 -183571 -160217 151354 -88282.3 -58420.6 -277911 
212 1 22.0212 27.4145 11.2801 18.6447 423267 970133 1.22754e+06 93178.7 -79449.8 -105587 
273 1 22.1285 25.7458 13.2447 16.9516 -15580.7 675546 907131 -4045.61 -224705 -218586 
274 1 23.8928 27.4654 13.0862 0.244959 -263172 -378783 92679.4 -551428 151123 28672.5 
215 1 27.4287 25.6268 11.2661 0.0740896 -442734 -118918 547698 -450002 113304 223853 
216 1 25.6776 27.4987 11.2496 0.236146 -478681 -669208 94021.9 -830319 208938 -210421 
277 1 25.6558 25.6233 13.1354 0.239943 152561 428034 258148 -154554 54708 -173746 
278 1 27.4836 27.5402 13.1897 0.485762 -155388 -124936 509890 564902 57469 226289 
219 1 30.9049 25.502 11.3237 0.401361 -525958 -244244 423284 -433216 -286067 4342.51 
220 1 29.2062 27.3123 11.2671 0.413449 -12441.1 -211700 -163606 -164361 -33815.1 408217 
282 1 30.9374 27.4591 13.1181 0.496737 -1.35424e+06 -1.14302e+06 -271811 -21434.1 212439 239969 
281 1 29.2133 25.7679 13.2397 0.71384 -118011 -251672 122798 -406667 179787 118798 
222 1 34.3266 27.3091 9.47254 0.296968 16689.5 -176625 133631 -510234 -23769.8 -10261.3 
223 1 34.3765 25.5415 11.3064 0.146422 382499 -56263.9 273082 -448692 -113622 105862 
224 1 32.5496 27.3233 11.2906 0.325139 -580032 -414180 156540 -62382.5 602276 124227 
286 1 34.4484 27.2969 13.1536 0.326073 20682.1 -46212.9 562387 -77832.1 -23385.9 -1919.59 
285 1 32.5296 25.6382 13.2137 0.616909 -21804.6 127820 79441.7 91092.1 -55525.3 1830.42 
227 1 23.7991 29.2199 11.336 0.18679 -22217.7 -60467.6 528996 112054 -118758 444212 
228 1 22.0708 30.9679 11.3532 15.922 -46308.2 449994 771718 -85922.8 -55728.8 187957 
289 1 21.9692 29.2163 13.1498 17.9439 773913 1.25194e+06 1.07198e+06 -64166.3 201970 -41382.2 
290 1 23.8202 31.0156 13.2057 0.281021 -120380 295012 26591.7 -352930 -60924.7 -171794 
230 1 27.3138 30.9336 9.45064 0.204486 -840803 -638829 115542 35949.3 372988 203978 
231 1 27.3414 29.1635 11.3242 0.233141 -434066 -196897 -296468 -737298 571971 496347 
232 1 25.5721 31.0254 11.2225 0.505869 -89492.3 -178217 -192331 -119043 247055 63359.1 
293 1 25.6726 29.1166 13.0911 0.621472 -1.01364e+06 -425271 -57899.2 -421140 208428 -351660 
234 1 30.7819 30.9177 9.50304 0.62547 -541285 -310488 -280820 -17585.1 94070.7 51686.4 
233 1 29.1685 29.1099 9.54303 0.610317 -88723.6 -614739 425895 -300688 95115.4 52868.2 
235 1 30.9786 29.1703 11.3342 0.29586 -43898.3 -657996 -10775.4 164909 -26888.8 454139 
236 1 29.1287 30.9841 11.2859 0.282784 109001 9235.39 150376 205768 288324 -297893 
298 1 30.9696 30.9857 13.1917 0.296089 -609919 -542554 516128 -308911 180972 -198202 
2973 1 36.1477 29.0997 9.46978 0.10021 305725 505777 329232 93290.2 24857.3 26530.4 
2976 1 36.0712 30.8466 11.3598 0.178991 94268.1 -162391 444463 116404 -69401.8 -317327 
238 1 34.3403 30.8757 9.45768 0.146723 76554.5 -83402.1 24542.5 93357.5 -147600 -109268 
239 1 34.2667 29.1048 11.3068 0.353343 399782 113494 354349 -359153 386292 57967.9 
240 1 32.599 31.0194 11.308 0.374547 -626572 -289930 248567 -686635 309586 142389 
301 1 32.73 29.0912 13.2526 0.402142 -503912 -484577 227928 -678582 158226 -33429.3 
305 1 21.9333 32.6798 13.2342 17.4945 233506 924247 1.0067e+06 199369 -203677 -103491 
241 1 22.0026 32.7268 9.52573 16.7138 223216 968492 774635 -267173 -401526 -77878.3 
243 1 23.75 32.7235 11.2502 0.223481 -691660 -1785.75 566747 41449.7 -498755 208643 
244 1 21.9387 34.3834 11.3146 18.5426 190465 309759 995229 -135732 8434.76 -389528 
1499 1 23.7054 36.0842 11.3446 0.287908 -198055 412713 849363 -267958 103376 -6666.43 
1573 1 25.5098 36.135 13.2588 0.200238 -107760 185775 375292 -274310 -39066.3 -103945 
1503 1 27.2248 36.1393 11.3558 0.247486 -564914 -598505 612097 -756845 212008 -54971.4 
247 1 27.3941 32.7087 11.3263 0.233951 -481643 -362947 632805 88969.6 61873.9 -208431 
248 1 25.6302 34.4269 11.2434 0.401794 -216041 -385174 736318 -426357 -142355 197605 
309 1 25.5603 32.696 13.1023 0.448728 -477205 -601225 491057 -382848 65413.7 -204018 
313 1 29.2111 32.6123 13.2061 0.570077 108094 153752 349189 171402 -52700 11256.4 
250 1 30.7668 34.5592 9.54738 0.564985 -237948 -668863 -224543 -221018 -57587.5 497410 
251 1 30.8629 32.8849 11.3012 0.707047 -351577 -504790 -99182.5 82306.5 235378 284823 
252 1 29.0611 34.4996 11.3744 0.126742 -898597 -535390 343362 27633.4 216296 40515.2 
314 1 30.902 34.4604 13.2594 0.144794 -678013 -973545 483851 -318238 -59924.8 -85552.4 
1581 1 32.5742 36.0809 13.1963 0.639901 -359989 -275486 517417 -705059 -132071 308310 
318 1 34.4255 34.3227 13.2295 0.47597 -697915 -182311 220613 52823.8 12512.9 -34978.4 
2994 1 36.1233 34.3195 11.3744 0.344939 -207046 197307 263350 -270479 58547.8 -96377.7 
317 1 32.632 32.7291 13.235 0.147331 -694088 -717371 435926 -539542 5221.54 -439590 
3063 1 35.9937 32.5185 13.1978 0.765797 -473953 -1.00704e+06 -106223 95391.4 190121 97353.1 
256 1 32.6708 34.5156 11.1987 0.775263 -161094 -212238 223300 -337127 -32535.9 -331008 
255 1 34.3454 32.6196 11.2679 0.148892 -881762 -750273 -19312.9 -494399 -431274 -181537 
257 1 22.4967 22.1107 13.3715 26.7687 318332 234624 920878 -411375 289989 -87719.6 
259 1 24.078 21.9367 15.2364 19.3848 715603 895684 876832 -473705 -266765 -82009.6 
260 1 22.175 23.9192 15.1131 17.2103 581908 1.16253e+06 1.09045e+06 -422915 -141743 -131346 
322 1 23.9081 24.0631 16.8801 0.967413 -968711 -466633 279477 -904486 314584 370.907 
263 1 27.3547 22.2782 15.1335 13.7078 -244932 -748316 287124 -106336 -305375 -103542 
264 1 25.5989 23.8697 15.0499 0.597456 -184360 -710261 199300 397458 104732 -191286 
326 1 27.4086 23.8596 17.0079 0.218725 -410628 -1.03785e+06 428119 -58120.8 202388 -243928 
267 1 30.9121 22.0743 15.0797 16.7904 552697 -187661 895177 -248662 -235032 232936 
268 1 29.1447 23.7929 15.0928 0.254632 -1.21115e+06 -723169 77869.6 -215908 -119641 332308 
330 1 30.8463 23.7783 17.0542 0.26816 -507822 -972129 218081 8698.38 -45446.5 297385 
329 1 29.0802 22.1315 16.9497 16.2363 515561 -293688 836499 34960.9 -89116.9 223594 
334 1 34.4677 23.8515 17.0188 0.435948 -316169 -299681 203299 -248529 118967 236393 
272 1 32.6637 23.6979 15.0538 0.388792 -106624 -821565 531188 -208973 -22968.4 175237 
271 1 34.4033 21.9801 15.0966 18.3557 875097 338118 1.42722e+06 74866.3 -162950 61249.3 
333 1 32.5709 22.0934 16.9344 15.936 694818 115651 580187 366697 -56496.5 215855 
337 1 22.0691 25.7858 16.8851 15.9608 273966 484040 496340 -102121 65350.5 596667 
276 1 22.0525 27.4353 15.042 18.617 559738 859065 989417 152012 -6414.94 -80852.1 
275 1 23.8817 25.7625 15.0151 0.310895 -571542 -372928 75006.2 -304180 -60368.2 -61885.8 
338 1 23.9355 27.3961 16.9813 0.32642 106623 -23323.9 623341 -87840.3 2856.51 -88451.9 
342 1 27.4013 27.4172 16.9186 0.644022 404394 283622 1.11863e+06 -273283 -164755 -15269.4 
341 1 25.694 25.671 17.0716 0.293382 -346100 -191624 817160 -281367 142328 330675 
280 1 25.6748 27.3767 15.0796 0.200874 -274976 92679 722727 -231607 -81461.1 92204.7 
279 1 27.4502 25.6115 15.0865 0.167666 504710 336557 650981 330369 245029 -324979 
283 1 30.9427 25.5592 15.1301 0.203081 -246840 109869 504453 -282560 -145223 -40425.6 
284 1 29.3012 27.4493 15.1112 0.436043 383358 -160460 311648 -435215 440.014 -392863 
3030 1 36.138 27.3256 15.1692 0.30834 -559810 -902168 249530 284417 -193135 231781 
288 1 32.5599 27.3414 15.0799 0.428321 151271 -305959 328053 -289982 1532.78 13335.5 
287 1 34.3923 25.5444 15.063 0.0871352 260406 302891 391763 -154602 -47263.2 2307.24 
350 1 34.3612 27.3012 17.0444 0.23288 -27755.1 -504310 -416801 -196842 147318 -31260.9 
349 1 32.6494 25.491 16.9677 0.298537 -300973 -97543.8 239390 85509.7 -325729 362608 
353 1 22.1022 29.1713 16.9697 15.692 340635 1.21131e+06 1.51894e+06 -369015 -127450 168077 
292 1 22.0643 30.8336 15.0405 15.9377 198371 809805 956973 -199172 159346 -9899.3 
291 1 23.9379 29.1831 15.0594 0.355562 -105907 -145087 1.03251e+06 -336005 103927 -71335.7 
358 1 27.3866 30.949 16.9767 0.312898 -259496 -593545 -40257.3 -272697 201328 250970 
294 1 27.2923 30.9024 13.3021 0.538593 271375 -187771 422727 -225449 -84650.6 219108 
296 1 25.4912 30.9253 15.1476 0.35521 -675637 -589824 298164 -426829 -19124.2 -173039 
295 1 27.334 29.2533 15.0857 0.357494 365716 -393330 16950.7 -306205 -44030.3 218766 
361 1 29.2198 29.1568 16.9917 0.222403 233238 249679 422792 -5765.83 449878 -141002 
297 1 29.2586 29.2408 13.2833 0.453575 -216189 -26832.8 583855 -250792 -50564.4 69448.3 
300 1 29.1003 30.9673 15.1725 0.214009 -568310 -536475 102853 -69191.9 154327 -89522.8 
299 1 30.9113 29.2072 15.1685 0.207693 -962962 -334454 426275 -626942 -22085.4 45730.9 
3048 1 36.0944 30.932 15.1485 0.365486 1179.13 -352154 26850 148328 -68089.4 -38658.6 
303 1 34.4829 29.0066 15.1793 0.507615 -821787 -264721 -225909 349897 -199038 187154 
3045 1 36.1456 29.0629 13.2818 0.182712 74222 288040 498501 -152331 -49393.8 86245.9 
304 1 32.6733 30.852 15.1542 0.145124 -489966 -450390 19128.5 -490710 55024.8 -13726 
302 1 34.3279 30.8581 13.2641 0.162165 -845727 -670769 343521 -997767 222184 -135129 
365 1 32.7201 29.1639 17.0206 0.355068 -411148 -607473 203693 -521433 -38786 -12437.1 
3117 1 36.0902 29.0932 16.9746 0.286185 -328337 -489692 -573847 -143641 -350172 -285542 
1571 1 23.6413 36.0576 15.1916 0.205576 143931 816550 459863 -432643 10187.1 -366765 
1569 1 22.0452 36.1132 13.2671 15.5204 -145358 1.08338e+06 1.30795e+06 -78759.2 -109042 -54328.2 
308 1 21.8632 34.2716 15.1848 19.3016 531950 947891 1.20918e+06 103308 27841.2 -317166 
306 1 23.7857 34.3951 13.3133 0.336697 -113659 -295832 678280 208725 -140597 73553.4 
307 1 23.7006 32.633 15.1021 0.270217 -603242 -427467 461491 -174582 -131175 -69713.6 
1641 1 21.9869 35.9482 17.0614 15.2572 3135.76 1.07669e+06 1.19618e+06 -217960 115914 -132953 