ITEM: TIMESTEP
13400000
ITEM: NUMBER OF ATOMS
5780
ITEM: BOX BOUNDS pp pp pp
2.9469770537323994e+00 6.9353022946283133e+01
2.9469770537323994e+00 6.9353022946283133e+01
-4.4366904719406648e+00 7.6736690471956209e+01
ITEM: ATOMS id type x y z c_csym c_2[1] c_2[2] c_2[3] c_2[4] c_2[5] c_2[6] 
81 1 21.3204 24.9617 -1.35895 23.7478 916537 1.30686e+06 1.18264e+06 9414.54 -21130.3 -149361 
4 1 21.6286 23.47 -3.36877 13.6031 -380885 -833416 75248.2 -555347 152977 -140412 
65 1 21.6139 21.7073 -1.63098 44.4154 621706 671942 1.08473e+06 -117098 393483 66581.6 
3 1 23.3168 21.6577 -3.3845 17.625 45467.6 358179 927039 -49302 88560.7 -44385.1 
66 1 23.3407 23.39 -1.36105 0.49757 -895400 -877697 362767 -832057 191131 69696.5 
8 1 25.0315 23.4023 -3.18645 0.348275 76043.6 -729317 -83316 -294329 537631 91855 
69 1 25.1029 21.6532 -1.42588 16.0201 106114 -420936 195995 -430287 638926 356604 
73 1 28.4783 21.4941 -1.22887 18.8183 1.56865e+06 937257 1.40194e+06 -101825 -98280.6 -88050.7 
7 1 26.7597 21.54 -3.22299 18.0245 1.04963e+06 537631 1.13297e+06 -32728 494491 92142.3 
70 1 26.6805 23.3962 -1.21125 0.374364 -338007 -235616 40259.4 -727920 -330163 116095 
12 1 28.4331 23.4232 -3.14205 0.157767 125244 250031 551856 -142551 -30434.1 129259 
11 1 30.2151 21.703 -3.12007 16.8242 1.07136e+06 86010.6 1.38633e+06 -69388.4 160727 89935.9 
77 1 31.9423 21.6701 -1.15568 17.269 1.48814e+06 472700 1.29424e+06 17736.5 150441 -111860 
74 1 30.1472 23.4733 -1.19663 0.19132 721632 28028.4 336341 -2821.81 -24045.5 -86367.9 
16 1 31.9208 23.4315 -3.06834 0.0658298 199537 -35555.9 1.0206e+06 -313659 294.688 141270 
15 1 33.7026 21.6622 -3.03089 17.4942 1.48451e+06 526632 1.4182e+06 183956 -32233.7 -209497 
2793 1 35.5232 21.704 -1.24665 17.5219 1.0941e+06 292001 1.2615e+06 170168 -63975.9 -109431 
78 1 33.7829 23.4369 -1.25217 0.273698 -27702.3 -264944 568221 -48453.5 115438 -135008 
2724 1 35.532 23.5254 -3.13393 0.300652 426021 319441 775861 -301398 285211 189417 
20 1 21.3677 26.6935 -3.20558 21.0919 249870 769962 707784 478987 -159982 -399489 
19 1 23.2126 25.1592 -3.26826 0.332828 -1.21156e+06 -1.25908e+06 492803 -792056 -247074 36343.4 
82 1 22.949 26.9309 -1.25308 6.00508 -170782 -47826.7 600547 -394882 74178.8 76941.9 
24 1 24.6699 27.0419 -3.12643 0.860983 397762 -285037 -50593.7 -349671 -330987 -157689 
85 1 24.8601 25.1599 -1.37506 0.371893 -541179 -704241 -69677 -975342 -93885.2 138763 
101 1 24.6714 28.6063 -1.26133 5.59982 -384619 -892761 89354.3 28498.2 -25613.8 -169587 
89 1 28.3 25.3224 -1.27336 0.349592 104050 378481 465124 -25248.1 -51291.9 -49079.8 
23 1 26.6087 25.3447 -3.17256 0.307666 -277200 430158 -109370 -461100 262100 -416544 
86 1 26.4701 26.9941 -1.28059 0.251899 -513128 -521040 313367 224479 -72719.6 -161491 
28 1 28.3367 27.1221 -3.17978 0.362056 77695.9 -711922 -147914 -98910.2 26016.5 -472888 
105 1 28.3263 28.7155 -1.28129 0.229709 146522 29198.9 65332.9 -123174 -54576.8 -174737 
27 1 30.1318 25.2479 -3.00922 0.374039 -98486.8 81562.1 321126 -388213 -156156 -144432 
93 1 31.9728 25.2502 -1.17448 0.178937 -159949 -7531.75 20830.3 56089.6 403497 140540 
90 1 30.1993 26.9885 -1.22163 0.319616 -59108.3 -414108 369930 -250980 -105335 177925 
32 1 31.908 26.9579 -3.17104 0.182445 -518177 -463702 -73741.4 578201 263686 19819.4 
109 1 31.9175 28.6838 -1.27448 0.243038 -337063 -169118 462208 102369 -615380 11302.5 
43 1 30.2293 28.7545 -3.09699 0.310364 -631092 -340866 -15379.2 -140835 -106659 -261819 
2811 1 35.4048 25.2494 -1.12723 0.56246 -287363 -414820 -12172.3 -10619.9 269873 -157541 
31 1 33.6224 25.2775 -3.09503 0.294457 -103835 -159621 362196 100381 31386 193987 
94 1 33.7194 27.0486 -1.23025 0.15807 -478651 -513207 202706 285654 -6305.48 -435459 
2742 1 35.4829 26.951 -3.06304 0.388697 216844 221434 452904 354530 -190285 -306748 
35 1 22.8483 28.8008 -3.23714 7.82404 -60529.6 5116.23 939179 24814.7 -223486 -2872.07 
97 1 22.2966 29.2338 -0.645167 14.4934 277185 423094 1.10342e+06 -77965.1 95452.5 314579 
36 1 22.3517 31.0954 -2.63486 13.2048 -205330 377753 1.16919e+06 -24000 147185 -337497 
98 1 24.0294 30.9962 -0.651181 5.86893 -16956.5 103764 406002 -81342 268323 66451.7 
40 1 24.6713 30.4561 -3.05905 5.3817 -394283 296390 600237 -57189.4 104092 63241.7 
39 1 26.5732 28.8299 -3.1238 0.180691 -251956 -255681 489848 121669 -150094 -17737 
102 1 26.4684 30.4769 -1.18914 5.49681 233908 -22480.6 -151399 20888.7 -72148 464873 
44 1 28.3605 30.483 -3.10124 0.158778 228447 64475 375127 -216172 -188932 -221276 
121 1 28.3191 32.2162 -1.21861 5.74377 824112 609357 461216 2071.1 -226902 119129 
55 1 26.4706 32.2316 -3.04522 5.89152 1.10193e+06 640263 800538 -7513.97 -137158 -137081 
106 1 30.1376 30.4456 -1.27995 0.23054 -70913.5 87019 378374 -49313.7 -56824.9 -329304 
48 1 31.9458 30.4742 -3.18391 0.250543 -749879 -471622 477404 -532443 236012 -195707 
125 1 31.9089 32.2115 -1.25192 0.255584 77827 -51955.3 566588 -85309.4 52093.1 -117407 
59 1 30.1388 32.3767 -3.11887 0.158893 457574 534393 698711 -202980 -386942 -160832 
2829 1 35.4967 28.8068 -1.31925 0.225482 221657 -41059.8 71288 -23578.6 -128344 225388 
47 1 33.7528 28.8553 -3.19798 0.576404 -186565 -169283 57280.4 201259 -64177.3 337080 
2760 1 35.577 30.4971 -3.16177 0.219758 -453687 -637370 251415 132366 186265 461683 
110 1 33.7313 30.5334 -1.14354 0.382221 197367 3889.76 401476 369410 -154724 208669 
2847 1 35.5234 32.3336 -1.19457 0.229326 115295 -316265 244555 -363978 113388 336752 
63 1 33.646 32.1489 -3.12553 0.552203 206610 328228 501517 -468750 224737 -36551.4 
51 1 23.9294 32.9398 -2.46614 6.01342 92530.5 148899 513162 -303425 231225 3648.61 
52 1 22.1621 34.7286 -2.46355 12.891 338077 1.12989e+06 1.37516e+06 -78.8743 -80262.8 550101 
113 1 22.3524 32.8907 -0.577252 15.7501 149758 993970 823931 6878.83 106450 43176.7 
114 1 24.0703 34.7446 -0.723786 0.775876 -361156 -381656 -71244.2 -169895 419320 477811 
50 1 24.0831 34.6581 -4.29095 6.03134 -195708 -90399.1 430435 251939 -145522 420749 
117 1 25.7441 32.9078 -0.605434 5.72278 320284 12263.7 40669.5 -81987.8 110308 142394 
56 1 25.8963 34.6562 -2.47891 6.49184 69085.3 200605 99614.9 71575 -140364 266048 
118 1 27.5524 34.6734 -0.628213 5.37518 495471 194838 7532.47 -324212 -247912 195489 
60 1 28.3443 34.175 -3.03558 5.54875 357562 278873 738579 -23405 260095 -184458 
122 1 30.1962 34.1028 -1.17313 5.16152 504235 438895 293477 8019.18 -271454 -59055.9 
64 1 31.8744 34.123 -3.0982 0.312968 -54944.6 -66196.4 346065 -726450 111575 317332 
1291 1 30.0641 35.9128 -3.09641 6.27303 284521 53566.6 946474 -306967 191592 85893.8 
1365 1 32.0457 35.8019 -1.16027 4.93036 57728.3 -631639 -95072.2 185383 27806.5 -40055.1 
2778 1 35.5246 33.9803 -3.05902 0.223164 -213291 29495.3 43958.2 200413 -370516 19684.7 
126 1 33.6374 33.9883 -1.23031 0.262991 -384843 -488648 363082 201950 145592 113463 
4242 1 35.4165 35.7546 -1.19456 0.296514 -194184 -578769 218025 255858 26196.1 79755 
1295 1 33.6834 35.7256 -3.06203 0.267767 -621976 -255519 -89354.4 -296304 -117940 105196 
68 1 21.5553 23.0911 0.437871 26.0403 579005 665182 713790 160840 -205360 74119.6 
67 1 23.5245 21.5465 0.4079 19.1835 634696 181376 690612 -259944 519648 -61068.8 
130 1 23.1234 23.2818 2.26501 8.71934 -544216 214495 165286 193724 153796 -190677 
72 1 24.958 23.5054 0.597227 0.379549 -803354 -1.26032e+06 167756 -756844 310334 188344 
133 1 24.9456 21.6969 2.44477 15.0445 -51948.3 -109510 298640 84526.2 -105658 -185256 
71 1 26.6564 21.6981 0.620466 15.1919 850039 -131689 788128 -146914 62585.8 331936 
137 1 28.4649 21.7662 2.44071 15.3847 472219 57375.9 331547 10600.3 141111 52985.3 
134 1 26.6498 23.4549 2.66193 0.858481 -284713 -751308 246196 -439509 -164730 102372 
76 1 28.26 23.5215 0.623269 0.599682 -129582 -30258.4 141909 -320624 -523285 214040 
141 1 31.8397 21.735 2.5992 16.2226 1.21712e+06 326617 1.07154e+06 -69115.2 3161.6 -342128 
75 1 30.0936 21.7133 0.671557 16.6154 919938 601215 574783 86574.3 315438 -41889.7 
138 1 30.125 23.6001 2.39589 0.848724 -185135 -676097 143783 -84604.9 66897.6 -20774.6 
80 1 32.0413 23.4867 0.595024 0.467153 531229 61311.2 436680 106367 25309.2 -69122.3 
79 1 33.8107 21.6705 0.755729 16.8192 963996 347123 1.69613e+06 -351626 -185712 -13420.4 
2865 1 35.5428 21.7084 2.58083 17.2017 805947 42890 890966 -421445 -38682.5 127291 
2796 1 35.5101 23.3679 0.699047 0.471658 -71678.3 -434989 503665 -297938 -42772.1 304847 
142 1 33.6526 23.4826 2.65756 0.48643 288093 -759373 38469.4 495400 -56574 133730 
149 1 24.7507 25.1936 2.56777 5.06678 -408713 73442.2 -820887 15157.7 333516 -504853 
83 1 23.0811 25.1796 0.537302 5.78559 259566 451903 -94202.7 73087.1 376385 201689 
145 1 22.3643 25.7602 2.7434 15.056 95087 1.05234e+06 276275 121037 208941 335082 
84 1 22.3785 27.7078 1.18234 13.4982 -220939 428095 -10459.6 -279699 -245545 619540 
146 1 24.0945 27.6021 2.98914 4.99727 -405860 -444206 -139702 345703 -78198.9 112895 
88 1 24.7369 27.0225 0.646455 5.62321 -262095 -481013 85979.6 189739 137229 105303 
153 1 28.3173 25.2287 2.563 0.144369 -507314 -545399 191749 -37260.8 -5072.77 169911 
87 1 26.4492 25.2759 0.654325 0.404824 -610306 -1.00108e+06 591389 -686710 10528.2 -185825 
150 1 26.4964 26.9695 2.54601 5.71761 -88144.3 -230502 424540 -56933.3 212889 -163970 
92 1 28.2038 26.998 0.693303 0.386786 468719 336580 645257 -293637 79406.6 -34109.4 
91 1 30.1633 25.2233 0.550309 0.35688 337211 -98375.2 35714.2 -304558 146022 385782 
157 1 32.0027 25.22 2.49484 0.39667 -89185.3 -178163 260700 135272 18993.1 -24245.5 
154 1 30.0805 26.9927 2.60099 0.207619 153171 268766 532827 -487837 239389 241481 
96 1 31.9028 27.0014 0.685577 0.174516 77860.9 -113495 -52479.1 -479886 -300512 -181574 
173 1 31.8846 28.6575 2.54526 0.395734 -623106 -402426 154031 293063 92279.7 -91059 
2883 1 35.5004 25.388 2.66518 0.747587 -535138 180815 48546.1 -393390 -11054.8 88097.7 
95 1 33.8229 25.2779 0.721087 0.43203 -231724 278660 124707 -380344 561066 -80050.7 
2814 1 35.5091 27.0409 0.57184 0.387194 -589847 -702301 395206 148515 -130741 -141443 
158 1 33.7017 27.1125 2.48568 0.56014 -618800 -538297 181157 301227 10234.2 -63895.5 
111 1 33.6903 28.7103 0.586569 0.244993 47345.6 -343974 -55607.3 95803.4 -54981.4 231080 
161 1 22.37 29.3057 3.16357 17.0449 -223732 678481 1.09412e+06 4182.42 -252800 -207857 
99 1 24.1547 29.3672 1.23044 5.97785 -644253 -882971 174468 -141866 80872.5 137173 
100 1 22.3096 31.0922 1.22537 17.3197 219068 1.26938e+06 1.03066e+06 -84035.6 -27190 113439 
162 1 24.0213 31.1016 3.11547 0.406777 -247778 -1480.96 -93723.9 -460537 -130893 149169 
103 1 26.4984 28.8408 0.566957 6.18665 -216486 -477825 132103 -77158.5 193493 238221 
169 1 28.247 28.8012 2.5372 6.54231 -680196 -33737.4 162952 -135291 580081 -149036 
104 1 25.9057 31.1794 1.26616 5.6522 -378794 -880948 -115706 -116993 -313639 -169199 
165 1 25.9577 29.368 3.04658 5.81554 -422476 -356526 -333409 93441.6 269708 -428129 
166 1 27.6611 31.2251 2.96062 4.96187 -401798 -307265 56947.5 312593 -269763 -134158 
108 1 28.3277 30.5046 0.578844 6.12192 -501057 -684904 283309 -144522 37706.9 244473 
107 1 30.0024 28.8069 0.777944 0.769535 40280.5 72911.9 555069 195224 -3904.26 59238.1 
170 1 30.0878 30.4369 2.67393 5.23936 40743.5 -760518 -406985 -107590 -100513 -84489.5 
112 1 31.8657 30.5069 0.676036 0.135651 490258 455995 688113 -49669.5 -77703.6 105890 
189 1 31.8645 32.2306 2.57146 5.42288 -1.03997e+06 -998160 257651 452652 47255.2 -27433.3 
123 1 30.0249 32.2552 0.659658 5.8629 173149 141481 600703 -266204 -132002 -253756 
2901 1 35.4417 28.8344 2.55159 0.142797 -413462 -164557 488817 -277583 -187891 -16150.6 
174 1 33.601 30.5363 2.59938 0.27289 -13012.7 -150027 96082.4 492035 -15278.9 100485 
2832 1 35.5168 30.5539 0.651587 0.109946 -765980 -690826 483781 313395 -351487 175931 
2919 1 35.5389 32.3051 2.66139 0.419828 -255855 -74941.6 -191600 158318 -33760.6 39936.4 
127 1 33.7504 32.2713 0.747295 0.26673 269537 -142196 304489 214474 132036 -316497 
177 1 22.2635 33.0216 2.9887 15.8177 440177 1.33921e+06 1.62177e+06 -324133 263067 -62510.6 
115 1 24.0895 32.8346 1.21323 0.296964 -918158 -38551.2 190732 22788.5 120376 -13829.2 
116 1 22.4717 34.7453 1.14056 13.7778 43458.4 582912 717527 -151682 209422 188729 
178 1 24.1005 34.6137 3.13511 0.377133 -259207 -20390.4 249020 -81.3545 314078 73128.3 
181 1 25.8639 32.8309 3.11896 0.193908 -58416.9 -75129.3 179772 486787 140362 -181538 
119 1 27.5775 32.959 1.17101 5.43642 -165451 -393133 213981 -372230 103508 523002 
120 1 25.7591 34.6629 1.28226 0.304543 -244434 -280054 448911 -123656 443996 -109117 
182 1 27.7208 34.6623 3.18277 0.246665 -59518.2 27223.7 -123792 98736.2 230501 337533 
185 1 29.5946 32.8701 3.05043 5.57642 -268667 -410666 93994.4 -93257 399134 57997.2 
124 1 29.3965 34.6287 1.25546 5.29967 175704 -334652 306169 155123 194129 166185 
186 1 31.3609 34.5754 3.03792 5.35116 -214972 -482807 499104 -37958.6 212793 -319477 
128 1 31.8762 33.9825 0.590746 6.55629 -232069 61845 -172676 -218263 -240034 -21101.1 
2850 1 35.5586 34.0451 0.640833 0.30265 127731 -102647 222709 -797.249 163091 -131531 
190 1 33.6655 33.973 2.49978 5.29404 -431575 -945401 -42202.9 123513 152286 -301696 
1367 1 33.6582 35.7219 0.678495 5.93455 -531824 -255388 56452.2 46825.4 -281524 -11789.7 
4323 1 35.4998 35.7224 2.57117 5.52583 -314251 -462596 56463.9 283410 264366 87975.6 
131 1 23.2816 21.5042 4.35105 39.1566 321623 137653 1.33835e+06 -870684 -23385.1 -30661.3 
129 1 22.2834 23.9592 4.46673 20.3842 603959 888345 34139.5 134756 330984 -35983 
193 1 22.4386 22.5865 6.49838 37.8233 242821 263745 888132 216232 -97272.1 319960 
194 1 24.2348 24.3129 6.80848 1.63227 -1.08814e+06 -150995 182987 46931.2 280345 501906 
136 1 24.6974 23.286 4.35339 5.43731 -299648 -1.08787e+06 626571 -428561 -158840 -62407.1 
197 1 24.7412 21.8435 6.43001 17.1 285062 149321 340359 1330.93 -146736 111759 
132 1 21.9687 25.0328 6.61056 30.5075 218074 897757 1.07229e+06 220424 -92935.4 -563971 
201 1 28.1767 21.7793 6.39253 16.934 723557 400190 1.03678e+06 -156191 -732715 15150 
135 1 26.6091 21.7236 4.38931 15.2739 1.38959e+06 187799 1.02949e+06 171035 -397677 392521 
198 1 26.5041 23.619 6.22845 6.77624 -371554 -464808 1.06208e+06 -389638 11525.9 388278 
140 1 28.4431 23.4808 4.35074 0.681685 -619310 -880364 162118 -204528 -462507 101657 
139 1 30.0653 21.7223 4.35463 17.0289 434488 100441 1.09995e+06 211212 -276834 -104794 
205 1 31.7046 21.692 6.30602 17.5343 840935 115980 1.57589e+06 125200 -409778 121538 
202 1 30.0098 23.3855 6.38435 0.388181 -378873 -621347 670855 392114 -287333 287469 
144 1 31.8422 23.427 4.4127 0.128263 -126319 -454095 466776 67233.6 163193 -162618 
143 1 33.7314 21.7584 4.37353 15.1017 771594 -257712 933355 -191230 -233259 338230 
2937 1 35.3892 21.6192 6.3868 17.4602 1.23046e+06 331404 1.55227e+06 -81163.2 -169069 -91353 
2868 1 35.4692 23.4066 4.52156 0.198243 48232.2 -465811 849662 -528603 -174974 -247907 
206 1 33.5308 23.3308 6.39113 0.415629 710298 369375 1.2111e+06 19571.8 -153534 20656.1 
147 1 24.1625 25.7795 4.7477 4.69819 504420 625301 -10267.5 397161 337255 -95919.5 
148 1 22.4366 27.549 5.14412 11.1017 722843 1.67185e+06 1.29923e+06 133580 -143939 -113788 
209 1 23.518 26.8699 7.25765 6.47234 159321 593075 561053 -586515 -249444 12994.7 
151 1 26.5653 25.2642 4.40529 5.80983 138573 -57373 -9292.85 141547 162748 256938 
210 1 25.2379 28.5773 7.30992 6.44561 784204 127336 1.43817e+06 -670300 -44907.3 -275619 
217 1 28.3286 25.1477 6.39258 4.83594 -447749 107282 359713 -539104 -235818 179618 
152 1 25.8654 27.6477 5.0166 4.32845 860376 796.027 350501 427826 -99306.6 513193 
213 1 25.9654 26.1019 6.85669 0.530037 432762 -155017 285176 -338417 -133810 452934 
214 1 27.6787 27.8923 6.95689 0.760526 -599606 -8470.77 -305841 -819191 -78912.2 311561 
156 1 28.3854 27.0023 4.44004 5.87511 409320 325456 764954 -32259.4 21426.7 -152072 
155 1 30.1054 25.1595 4.38064 0.275063 -200280 -370341 549791 -154259 -241781 -113242 
221 1 31.8193 25.1948 6.38236 0.10316 93025.2 145031 915734 -148586 -136442 136470 
218 1 30.0465 26.925 6.35268 5.02829 298740 400883 594264 -271191 -341675 282565 
160 1 31.9972 26.9126 4.38674 0.503101 377939 -106239 334424 175092 -122790 -83867.4 
237 1 31.8878 28.6292 6.29126 5.92738 512447 448547 762266 -23608.3 -139166 -19152.1 
159 1 33.6806 25.1558 4.44845 0.276921 -121360 -215502 252414 239561 -174501 -605632 
2955 1 35.3811 25.2121 6.37034 0.29656 192931 17719.2 196168 339346 -23549.2 58935.6 
2886 1 35.3388 27.0621 4.58412 0.480357 -103058 -379662 527911 142861 112720 -127106 
222 1 33.5997 26.8081 6.4157 0.761973 -544523 -215971 257848 270035 40388.5 59477.7 
225 1 22.393 29.3119 6.90307 17.5125 1.05499e+06 1.21422e+06 1.28212e+06 -412324 142149 -309114 
163 1 24.1447 29.3329 4.86939 4.37906 -1.20047e+06 -875510 307710 -357417 -265956 -231709 
164 1 22.3999 31.097 5.05822 17.6361 117222 1.07126e+06 1.28187e+06 -168738 193231 -265903 
226 1 24.3034 30.9032 6.82942 6.07639 300907 519359 652316 30511.4 326547 -229482 
167 1 27.7761 29.3864 4.98086 3.88274 251745 416786 330423 165176 -180797 138610 
168 1 25.8429 30.9351 4.87504 5.25134 -274292 -86825.9 291186 -271361 194907 -345828 
229 1 26.9131 30.3687 7.26567 5.71014 280627 -86013.2 1.45798e+06 -855632 98538.6 -115658 
230 1 28.644 31.9742 7.20834 5.0327 624739 461986 1.05534e+06 -653943 -7884.08 13096.8 
171 1 30.2136 28.8066 4.42558 5.82311 127790 -277386 125697 -259326 35859.7 354982 
172 1 29.515 31.2213 4.95332 3.04696 -27686.8 -65685.4 15604.6 631966 344907 48166.8 
234 1 31.2148 31.0651 6.97625 1.14228 -25465.5 509328 683728 -602479 -102656 396897 
233 1 29.3785 29.5528 6.88771 0.413438 -447748 -718439 191860 -1.18879e+06 -397361 385981 
176 1 31.9008 30.5769 4.43582 6.02689 -791051 -439717 374943 -490325 123540 198050 
175 1 33.6528 28.7881 4.45902 0.178689 -184765 -132900 504197 193772 13173.1 -14041.8 
2973 1 35.3027 28.8471 6.45496 0.497123 419349 503092 466303 417514 -226617 -417195 
238 1 33.5845 30.557 6.43951 5.98499 -38924.7 172723 971263 694042 -133796 -205462 
2904 1 35.4249 30.5677 4.43597 0.168617 90781.6 -161252 652635 42201.4 -100111 186955 
191 1 33.6362 32.2747 4.38085 5.41307 -727697 -1.4185e+06 201098 54707.9 189642 -385104 
241 1 22.6057 32.723 7.16432 14.7986 -520620 738082 1.31105e+06 -616422 -324451 -42056.7 
179 1 24.1198 32.8033 5.01906 0.317714 414034 537157 1.08883e+06 -159198 387663 -145683 
180 1 22.3592 34.6225 5.05654 18.2858 327749 1.56312e+06 1.77722e+06 -219650 140108 -153323 
242 1 24.1825 34.4218 7.05161 0.552433 -199911 -307619 884375 -558212 183716 412479 
245 1 26.1057 32.7824 6.99068 5.08265 465758 239645 533250 -145679 390715 28351.2 
183 1 27.7286 32.7899 4.98566 3.95238 -204385 -55372.7 552882 693498 -38903.3 -112242 
184 1 26.0566 34.5721 5.08655 0.322699 -437880 -431746 729968 418567 140763 33747.2 
246 1 27.8152 34.5154 6.96118 5.47297 -105771 233083 71985 -198338 322175 -79272.2 
188 1 29.4649 34.5143 5.01216 4.5478 -412429 45075.1 518179 -156208 -125279 -300444 
187 1 31.3817 32.9898 5.07462 2.94349 -596459 372007 728796 164536 -175513 -59686.7 
249 1 30.5113 33.7486 7.44024 7.29444 1.01578e+06 -76693.8 840806 -261913 -49701.4 111880 
250 1 32.2534 35.5078 7.38457 6.09631 -168455 314994 951254 -275918 -296568 124354 
1435 1 31.3566 36.0772 5.07483 4.18418 -783514 166860 -105657 320779 396975 -182729 
1505 1 29.8729 36.0277 7.00076 7.03012 213452 -48721.1 511024 33813.2 317038 25944.1 
2991 1 35.4086 32.4755 6.35673 6.40759 203040 336092 1.01163e+06 -80253.4 153790 47775 
2922 1 35.4968 34.0681 4.41412 5.94091 -870690 -1.46718e+06 205057 253559 428746 -42223 
192 1 33.2483 34.5572 5.01019 3.64872 -1.17426e+06 -1.11631e+06 237760 152010 303980 282723 
253 1 33.0045 32.9531 6.92102 0.406027 188155 147198 123691 -198899 -183699 154184 
254 1 34.7139 34.766 7.09261 0.905294 409642 6313.78 345389 19879.6 -361533 4283.09 
195 1 23.9755 22.72 8.63946 21.3842 84933.7 -192768 657564 -226809 429987 278729 
257 1 23.3032 23.5357 10.9573 34.4787 385453 785254 1.65338e+06 -236971 68144.1 107272 
199 1 26.3183 22.0044 8.28103 14.0189 55216.4 -44872.1 457985 -326629 -326928 -99781.5 
262 1 27.5572 24.4002 10.7556 0.560702 -222457 228521 349323 3597.3 -5843.63 -185937 
261 1 25.6326 22.6327 10.6694 17.6703 589750 235387 980865 129000 217276 99317.1 
200 1 25.7573 24.37 8.80124 0.353955 28030.1 -577723 337610 -383131 -124449 -166147 
265 1 27.9877 22.0173 10.1494 12.204 201531 -271535 255929 -214785 -184699 358498 
204 1 28.1668 23.5948 8.29491 5.43708 -61442.3 -1.15205e+06 -40300.7 -157066 -138112 643580 
258 1 25.1344 25.0561 11.0931 5.03016 -584945 -91652.2 619400 40165.9 232137 -134700 
203 1 29.7431 21.728 8.22411 17.5263 939702 291877 784916 259741 -615218 326915 
266 1 29.8666 23.6534 10.1404 5.62835 -471719 -273285 309879 -282046 -291259 457829 
269 1 31.4991 21.6817 10.0441 18.2746 1.42066e+06 548317 1.27059e+06 -10777.3 14366.8 159311 
208 1 31.6723 23.5016 8.30572 0.145815 726692 618353 517704 -189361 -293154 309844 
207 1 33.429 21.4936 8.1546 20.3135 1.86276e+06 1.13602e+06 1.6301e+06 1248.78 -332486 277533 
3009 1 35.249 21.6242 9.93806 16.3496 1.3535e+06 535181 1.31872e+06 -158481 123312 522433 
2940 1 35.372 23.3793 8.26756 0.296461 769607 230117 769646 180715 -137136 507360 
270 1 33.3462 23.4896 10.1894 0.476029 602104 221898 448073 364199 -345905 328088 
196 1 23.3088 25.147 9.00252 8.33388 625986 903528 1.33095e+06 -61953.1 510227 357559 
212 1 23.2512 28.2786 9.29017 11.106 670594 1.22175e+06 1.22776e+06 336126 77209.5 -151682 
273 1 23.3701 26.707 11.2219 15.3812 161968 765173 785761 196258 -41399.3 392168 
211 1 25.2138 26.7859 9.24393 4.74003 183059 170168 741960 179527 -39078.1 -93132.5 
274 1 25.1301 28.4754 11.1692 0.142658 -273375 -331757 597449 183778 -121881 113430 
215 1 27.6402 26.0287 8.73989 0.289407 -180801 333565 811893 -37398.4 -28960 82052.2 
216 1 27.0398 28.5786 9.19768 4.76216 135340 650376 246395 -30773.6 47194.5 -387141 
277 1 26.9363 26.8792 11.2806 5.68567 -771890 -206673 720202 -227619 -5565.76 -97946.1 
278 1 28.7024 28.4393 11.1782 5.3252 34330.9 -40756.7 967191 -312342 -48309.9 -296618 
285 1 31.7256 25.2934 10.2334 5.25738 -805077 -544228 -383360 144647 -302762 118441 
219 1 29.9583 25.391 8.28616 6.41873 -593234 -303680 316886 -411859 -181936 439036 
220 1 29.4092 27.8653 8.70699 0.438825 -763554 -188251 438414 -385425 -237673 26200.9 
281 1 29.3404 26.082 10.7956 0.486722 -440791 -277978 393538 -289240 -128586 -309835 
282 1 31.1753 27.7175 10.7086 0.250991 -479686 -19666.6 195412 -435273 234796 -287267 
224 1 31.7537 27.0252 8.30627 5.4073 -590996 -177180 401692 -430855 -92633.1 39272.7 
223 1 33.5154 25.2294 8.38017 0.230536 209084 77088.2 562049 -505633 -16864.7 418314 
3027 1 35.3403 25.3075 10.2828 0.709762 235671 -216846 -29100.8 -95060.6 -290253 582612 
2958 1 35.3251 26.8339 8.33869 0.768417 -375687 -156177 236951 95329.5 -45021.6 14425.4 
286 1 33.5054 27.0673 10.1875 6.01852 -344035 -178350 -186779 36390.6 78178.2 173132 
239 1 33.5906 28.6585 8.32264 6.01428 265421 538770 576124 -281376 3816.89 413387 
228 1 22.6637 30.7889 8.88874 13.905 405040 689047 507300 -159905 -31528.7 -185699 
289 1 23.2422 30.0635 11.2092 10.0497 286548 821224 799771 82046.6 17573.9 -122630 
290 1 25.0098 31.8394 11.2934 5.67899 -186738 -273002 523424 -104701 130442 -153266 
227 1 25.0891 30.2066 9.33897 5.7367 713612 784659 896231 108665 -194126 -9653.96 
232 1 26.8816 32.014 9.28574 5.17937 544727 204277 898581 -305135 -226502 13450.7 
293 1 26.8709 30.2066 11.197 0.266942 55332.6 275357 1.0773e+06 -258082 -33988 -2240.45 
231 1 28.7715 30.3495 9.25221 4.61342 280461 231230 929734 -266682 34825.7 -291604 
294 1 28.6851 31.8719 11.2663 0.246356 343964 426736 1.10467e+06 -294775 71137.1 -317694 
235 1 31.1556 29.4794 8.80502 0.145247 29885.1 -191182 588755 -650745 -117835 524283 
236 1 30.522 32.0655 9.30746 4.93986 176739 471212 646368 -316500 -203100 145725 
297 1 30.5887 30.2549 11.248 5.22402 -419312 496139 1.15794e+06 -84623.5 211199 -31691.3 
298 1 32.2737 31.9483 11.0977 4.6809 -367823 32824.4 506758 -497585 -67962.8 -305161 
3045 1 35.4192 28.7903 10.111 5.71321 -45012.6 248679 425287 -248852 -94408.5 260564 
240 1 32.9534 31.2456 8.85779 0.169442 230602 634336 -43509.2 -212855 49418.1 -191992 
302 1 34.655 31.2 10.7955 0.307473 -330885 318602 323225 -224182 -264510 66389 
301 1 32.8807 29.4633 10.7975 0.352357 -155768 -258814 648681 -371208 -36299.1 37388.5 
2976 1 35.3615 30.5657 8.27841 6.32621 -93664.6 -70079.7 460492 13820.4 -306982 -211988 
305 1 22.7299 32.5458 10.6288 13.1723 -311599 612052 850938 -294560 333171 -27691.8 
243 1 24.3559 32.6639 8.81556 6.10625 -524130 491358 -332139 -255177 65860.7 190049 
244 1 22.5478 34.5312 9.04931 14.8891 287646 1.07847e+06 1.25497e+06 -286163 -12503.8 78418 
306 1 24.4447 34.2989 10.7715 5.54263 -661162 -325218 504911 -446760 -115989 166986 
1503 1 27.9793 36.1282 8.98353 5.21148 -124676 -1.041e+06 171686 -531890 -104661 -53010.3 
248 1 26.1877 34.4436 8.86214 5.62061 -78163.8 -693571 -196065 -103169 381623 180769 
309 1 26.7628 33.568 11.3474 5.29761 225791 13855.3 744836 -113794 36980.7 -29660.1 
247 1 28.6119 33.7089 9.28228 4.70016 -70763.7 51036.6 1.14579e+06 -335511 -141515 -68856.1 
310 1 28.6352 35.3367 11.2535 4.84144 -326289 79319 303313 405778 -30909.7 113015 
1573 1 26.2011 35.9843 10.8994 6.13066 -173352 -372330 -120295 -361461 -158579 207681 
252 1 30.5231 35.2865 9.4312 5.78322 -95003.4 186240 123022 -136475 -121017 -76563.5 
313 1 30.373 33.6702 11.3241 0.600231 223735 -103857 525215 145448 93100.2 81201.8 
314 1 32.2345 35.4332 11.2525 0.176486 -399049 -68055.8 179523 66825.9 -238559 -12841.8 
251 1 32.3765 33.7587 9.23208 4.87735 -617634 -356640 537988 -17737.7 -250851 -71557.9 
317 1 34.0435 33.6808 11.2568 5.21259 13958.4 178595 161729 -87378.2 183107 -271825 
318 1 35.9191 35.4428 11.3898 5.65845 -617628 10261.4 -211642 -164504 -130874 -560048 
255 1 34.7759 33.009 8.93746 0.409448 -424908 -61344.7 349541 -331590 -152225 60448.6 
256 1 34.0443 35.4743 9.4143 5.33588 -743568 -741144 29370.2 -411765 441807 -425106 
321 1 23.4692 23.5903 15.0369 27.7722 372708 491838 1.16368e+06 -574202 265969 83897.6 
259 1 25.0095 23.215 13.1376 12.1724 388792 506575 1.56058e+06 104763 225903 -39180.5 
325 1 26.7218 23.0839 15.0659 10.5686 1.24981e+06 447333 1.66462e+06 54818.9 -117601 -1528.48 
263 1 27.375 22.4485 12.607 18.7563 446188 450811 1.03717e+06 -441615 2537.62 -484.583 
264 1 26.7585 24.9948 13.0776 4.29917 -289158 361535 649817 -20281.1 349212 -120595 
322 1 25.2724 25.0633 15.1421 0.794613 -1.19012e+06 -541339 688715 -513175 137016 -6955.91 
326 1 28.4932 24.869 15.1674 6.10715 824114 109368 -48825.9 -117267 451107 -233524 
267 1 29.7583 21.8392 11.8501 13.6547 360736 51164.1 1.01373e+06 -545244 67217 285318 
272 1 31.5321 23.4436 11.9722 6.2954 -251559 -980483 -292036 -525842 -85779.3 109662 
330 1 30.9005 24.0544 14.3283 0.727156 188660 -1.21556e+06 -233067 -453926 -192706 666092 
268 1 29.0719 24.1888 12.6879 0.857549 -886405 -714260 316476 -284123 -625905 140951 
329 1 29.1555 22.3886 14.4188 19.1945 567014 199731 970131 -586020 -293622 401183 
333 1 31.6296 21.7655 13.8156 13.9881 1.15339e+06 -170435 887296 -115891 455881 166083 
3084 1 35.1912 23.3583 15.751 5.46724 -33845 -220897 848096 99351.8 116242 -41181.1 
271 1 33.3772 21.6705 11.9495 18.8753 1.53038e+06 628800 1.38385e+06 8186.18 -86856.3 117032 
3012 1 35.2126 23.492 11.9115 0.309655 240218 52298.2 152049 384699 -28186.7 141902 
3081 1 35.0919 21.6305 13.8228 17.342 1.60711e+06 846133 1.41333e+06 270510 27374.2 -77473.1 
334 1 33.4186 23.4976 13.7955 6.00514 399079 -738306 528231 -179035 98362.8 117964 
335 1 33.3708 21.639 15.735 17.4266 859039 259824 1.08814e+06 -203793 48984.9 -167558 
260 1 23.4404 25.0939 13.09 19.6357 435408 48641.4 624624 -13436.8 117345 296481 
337 1 23.4052 26.6418 15.0076 15.08 216584 1.09786e+06 965073 85069.3 184414 115358 
276 1 23.2564 28.3233 13.1366 18.2883 370536 1.18368e+06 1.27638e+06 442185 408.118 80909 
338 1 25.0917 28.4707 15.1269 0.206984 -715924 -741183 198603 600380 206617 -40889.1 
275 1 25.1571 26.8527 13.1448 0.402777 -1.12287e+06 -295648 459948 24490.8 84338 4633.73 
280 1 26.935 28.4979 13.1972 0.240088 -413252 -710856 224293 -472187 -48274.3 -19723.2 
341 1 26.9158 26.8455 15.0305 0.624525 -167061 -435652 252277 -88044.9 56305.8 271517 
279 1 28.6402 26.5646 13.1311 5.36207 -515689 -49512.1 164317 -68301.3 71312.2 -222261 
342 1 28.811 28.4758 15.0284 0.458609 83651.9 -61479.9 423691 -278187 -53213.7 488714 
283 1 30.9541 25.7781 12.603 0.667939 -709589 -402626 -721022 283882 45877.6 -23983.8 
284 1 30.5213 28.2622 13.0382 5.82398 53211.7 212006 548544 78965.5 290509 166555 
345 1 30.4779 26.5913 14.9089 5.41232 37128.9 643516 123676 403106 205811 15348 
346 1 32.3195 28.3958 15.0628 5.58424 -81340.1 -260981 421865 -48203 231766 83480.2 
3099 1 35.2394 25.1915 13.7673 6.35374 -250296 -368808 985177 323600 -65948.7 -127283 
287 1 33.3144 25.2005 12.023 5.8292 -357125 -22570.2 -511951 135019 -587071 -6016.78 
3030 1 35.2611 27.045 12.0459 5.82891 -120923 -128013 251872 42936 -41401.7 -139839 
349 1 32.7612 25.7895 14.4767 0.459093 211742 133353 353255 58387.1 244821 -123809 
288 1 32.9057 27.6559 12.5935 0.228003 -396722 -10569.6 352368 179471 -11224.6 -55669.4 
350 1 34.5933 27.5718 14.5468 0.441432 60740.3 418311 623426 -3020.01 1133.45 -4577.12 
292 1 23.303 31.6982 13.1452 10.5546 -204553 558804 1.02059e+06 164688 297885 -131672 
353 1 23.4091 30.1227 15.136 15.6602 -333295 145564 601843 205649 56189.5 338265 
291 1 25.1157 30.129 13.1559 0.0776447 -129942 233899 634945 843655 123863 368177 
354 1 25.094 31.8726 15.1686 0.308603 -687163 -221055 626748 169813 121011 282291 
296 1 27.0122 31.9235 13.3078 0.763781 155332 -84025.6 462085 -60731.7 12930.2 28862.7 
357 1 26.9238 30.1741 15.1329 0.167558 401540 -42533.1 364582 -31854 53370.3 -73952.3 
358 1 28.8477 31.7982 15.1235 0.478343 -435100 -275943 138012 429129 80842.2 84983.1 