ITEM: TIMESTEP
19800000
ITEM: NUMBER OF ATOMS
5780
ITEM: BOX BOUNDS pp pp pp
3.9916260501039256e+00 6.8308373949911569e+01
3.9916260501039256e+00 6.8308373949911569e+01
-7.1163967517912745e+00 7.9416396751806815e+01
ITEM: ATOMS id type x y z c_csym c_2[1] c_2[2] c_2[3] c_2[4] c_2[5] c_2[6] 
68 1 21.8884 24.0816 -4.10989 23.177 -193642 453941 882702 260338 230343 248236 
65 1 21.9996 22.285 -5.88873 39.5308 576422 354986 582158 -182497 175677 42260.6 
66 1 23.5785 24.0985 -5.85027 5.73051 -1.37411e+06 -993125 225120 158399 340995 396748 
67 1 23.5944 22.3238 -3.94076 21.7452 -171766 -221680 635990 193747 351288 -174888 
69 1 25.1099 22.1971 -5.76417 13.2785 760675 -105010 181506 293187 338413 -62197.7 
73 1 27.6762 22.5099 -5.11663 10.8848 927241 651063 1.0588e+06 -177802 384436 -47598.6 
70 1 25.9229 24.4792 -5.15647 4.71376 382569 254591 517141 -717902 -331359 262012 
12 1 27.6464 24.4408 -7.03028 5.19402 -215279 220805 483403 -433604 -307540 -85011.8 
74 1 29.211 24.4404 -5.11671 0.5268 54894.6 17740.1 513303 -344989 -96836.5 -101734 
77 1 31.0496 22.679 -4.98213 16.1653 1.19234e+06 343594 1.25705e+06 -220212 70722.5 -186138 
16 1 30.9718 24.6186 -7.00669 0.856795 -366596 -877269 87872.3 -385408 77420.6 -437178 
11 1 29.4699 22.6788 -7.05601 9.85558 1.26929e+06 105026 896834 -75439 -17059.2 -53122.1 
78 1 32.7058 24.4708 -4.92638 0.558084 -184461 -448750 446005 239632 -183228 -550698 
15 1 32.7747 22.7806 -6.8573 14.0847 914420 397526 688161 -324158 -223131 3511.61 
2793 1 34.2875 22.5675 -4.90325 15.1973 1.32646e+06 607112 1.0614e+06 375253 -72083 -141865 
2724 1 34.6452 24.3427 -6.92057 0.613297 684683 252850 1.1787e+06 -271890 -47623 -165674 
81 1 21.7371 25.7592 -5.91886 12.9665 -311625 958911 815952 289904 481894 391388 
82 1 22.2559 28.3171 -5.14676 9.66914 -126187 882948 1.05251e+06 -421577 108457 165711 
85 1 24.003 26.4494 -5.08593 5.54749 220597 136391 60508.5 -369828 -202948 -585692 
24 1 24.015 28.2728 -6.97924 6.33994 378758 312139 195683 -447424 -144834 -49633.6 
86 1 25.7495 28.2039 -5.21118 0.366545 -305208 -79823.4 40724.4 -570239 92165 33467 
89 1 27.5189 26.3241 -5.02953 0.350919 103347 -224869 430214 -422822 -54117.9 119085 
23 1 25.8567 26.301 -6.96291 5.80064 247874 -2742.32 869234 -490790 -400881 -43180.3 
28 1 27.52 28.0643 -7.02641 0.205509 29475.4 354214 1.03623e+06 -98164.9 258813 -5698.82 
90 1 29.2779 28.0597 -5.02811 0.320626 172746 99363.2 801601 -590883 160206 44809 
93 1 30.9593 26.1632 -5.17947 0.84995 114902 -102434 79207.3 189222 184183 -299297 
27 1 29.1997 26.2777 -7.09835 0.722155 -442602 -201122 347691 346550 -307692 203803 
32 1 31.1745 28.0839 -6.92116 0.497635 269980 -408649 304838 241334 192023 -391184 
94 1 32.9438 27.9176 -4.976 0.701835 311167 633107 562803 428561 209602 104109 
2811 1 34.6531 26.2003 -5.07362 0.345699 296547 -114038 567154 247182 -110389 308792 
2742 1 34.5837 27.8535 -6.95828 0.432102 194928 340059 603639 8286.65 -85149.2 370043 
31 1 32.7749 26.2015 -7.03009 0.444323 -548727 -262019 290195 -583277 -109089 -405163 
36 1 21.6599 32.4554 -6.49838 24.3626 299437 782856 733783 371904 216314 -258775 
97 1 21.6638 30.7906 -4.54437 27.2119 73241 1.06378e+06 1.40335e+06 28322.2 86253.1 -1319.54 
101 1 23.9225 30.0177 -5.14022 5.84031 197239 -462025 206826 -101458 353255 -290750 
98 1 23.5278 32.4264 -4.70548 5.3646 -303330 -716038 192938 141258 226966 -183556 
35 1 22.0038 30.0444 -7.07752 11.1649 840539 553621 1.0825e+06 -140874 60108.9 423227 
40 1 23.9346 31.7331 -7.06761 5.28569 -2644.4 161487 -256013 233884 618292 -266003 
102 1 25.8948 31.8457 -5.18586 5.79605 -185647 -298450 674284 269203 79826.8 197665 
105 1 27.4407 29.9466 -5.14249 0.448757 117315 375979 765905 -148123 -109662 -10397.2 
39 1 25.7786 29.9736 -7.04029 0.142954 -255410 -17207.1 -7183.7 -327556 -200068 622634 
106 1 29.3758 31.6555 -5.09375 0.213783 235139 59811 202943 142706 -94252.4 -208392 
109 1 31.0507 29.7134 -5.09486 0.454388 102186 -119518 -244100 -239701 -163769 -166609 
43 1 29.4031 29.814 -6.96039 0.358443 146561 66482.9 767703 -292078 -207686 12246.4 
48 1 31.0795 31.5293 -6.94151 0.347699 -199917 -115291 445918 -316832 -4291.82 -9209.23 
110 1 32.927 31.5659 -5.1325 0.122147 285711 -43384.6 81294.9 335507 114901 109209 
2829 1 34.6561 29.8414 -5.01312 0.34743 -363719 164316 377872 415028 -391379 133508 
2760 1 34.6664 31.5448 -7.0374 0.127602 -136090 -486807 295439 -43193.3 -60416.2 338251 
47 1 32.9174 29.7802 -6.92286 0.290653 -124578 16707.8 499510 -386996 229272 -210554 
56 1 25.3492 36.0208 -6.45058 0.384067 -751017 134844 571001 -453156 -170718 46757.2 
1281 1 22.8784 34.7063 -4.14694 20.275 570280 985477 1.03247e+06 512685 440044 -261762 
51 1 23.6136 34.2391 -6.47107 4.93346 -535819 15513 -63104.9 335431 159352 -141157 
117 1 25.2755 34.2428 -4.65006 0.201701 -825564 -383836 -9671.89 -443969 -161874 -178236 
118 1 27.0042 35.9061 -4.64791 0.279831 -529971 -216068 -754707 -211472 -75643.7 133850 
121 1 27.6733 33.4883 -5.15818 5.47692 -267298 39398.2 369595 -171870 49126.3 -139360 
55 1 25.8579 33.5099 -6.9948 5.70476 -261173 160618 -212313 410317 296609 -14313.5 
60 1 27.7364 35.3057 -7.01942 5.5549 298082 58487.6 -90736 136877 399811 -45180.5 
59 1 29.4509 33.4579 -7.00509 0.14047 -341229 150316 385237 -146308 168900 53750.9 
122 1 29.4706 35.3493 -5.09304 5.61886 -439754 -239377 69622.1 -425990 100622 -198225 
125 1 31.1657 33.4617 -5.1604 0.169545 -926235 -608153 -366068 -722759 95233.8 -25591.3 
64 1 31.1468 35.2371 -7.02732 0.21059 -521864 -265606 -102628 -172648 -318590 204635 
63 1 32.9081 33.3156 -6.94807 0.198794 326415 77814.8 -43798.4 218976 180519 -16931.2 
126 1 32.827 35.109 -5.21244 0.732262 -243728 -394367 106025 -543517 7579.04 35764.5 
2847 1 34.7702 33.3508 -5.2022 0.25685 162133 188383 477196 -22203.9 -229666 -153076 
2778 1 34.8407 35.1113 -7.07329 0.602192 -512419 -278900 96565 62548.7 541869 200306 
72 1 24.0965 24.5818 -3.17669 5.22423 -422115 -102302 662832 -654908 60031.6 -12711 
130 1 22.5926 24.5122 -1.29463 10.0141 34069.9 818337 430557 -236298 218106 227362 
133 1 24.3659 22.699 -1.41225 15.5443 191220 -36140.1 891319 -559058 399973 112431 
71 1 25.9851 22.6976 -3.37162 10.219 450965 243751 533911 -424119 433831 104176 
134 1 25.9111 24.4778 -1.39023 0.447579 -82458.5 108484 143624 -1.03331e+06 315188 12996.2 
137 1 27.6668 22.5033 -1.36502 18.1772 1.25948e+06 877124 1.1559e+06 -318339 462329 70644.6 
76 1 27.5409 24.6012 -3.20464 0.656923 -173386 74820.3 -108115 -454920 165163 87739.6 
75 1 29.2411 22.6386 -3.13603 16.4247 926830 669412 562524 -155671 413592 -28334.9 
138 1 29.1811 24.4753 -1.25959 0.330933 6799.22 -347365 286827 46085.4 47459.2 -54104.9 
141 1 30.9409 22.6709 -1.20354 15.5978 953328 250129 941379 -103142 246707 -247464 
80 1 30.9434 24.5076 -3.15348 0.320892 -470009 -693732 520145 161893 303809 -147265 
79 1 32.6928 22.5829 -3.01626 17.6638 683467 569935 291284 -71926.9 -63599.6 -233158 
142 1 32.7363 24.355 -1.22807 0.34356 -73249.4 -415739 466075 412824 93349.9 34472 
2865 1 34.3476 22.5662 -1.22497 11.5769 638572 226079 771075 460751 19440 -140003 
2796 1 34.4566 24.4423 -3.17469 0.361657 -202108 -35802.1 571339 316106 -370350 51391.1 
2795 1 36.134 22.64 -2.99616 15.7722 858099 16627.5 1.03884e+06 -42728.8 18218.6 -12808.4 
84 1 21.6892 28.9116 -2.75617 28.2873 354394 1.03324e+06 1.15219e+06 -37093.6 -78857.5 -363047 
145 1 21.7777 27.022 -0.740578 28.8628 -257666 1.22282e+06 1.01239e+06 -218692 -93752.9 -192039 
83 1 22.3538 26.4323 -3.17638 8.76867 89271.5 861598 1.41831e+06 -271862 209702 75195.1 
149 1 24.0945 26.517 -1.29749 5.59824 -680751 -90233 33848.1 -539427 281563 -121224 
88 1 24.057 28.176 -3.34126 6.27441 -504740 -821530 228830 -155703 112649 -277075 
146 1 23.366 28.8792 -0.89368 5.41145 -445655 -1.02744e+06 736952 -192420 -61262.5 -5559.2 
87 1 25.7258 26.4051 -3.22448 0.319343 -464633 -78560.3 521575 -123043 108374 -39738.3 
150 1 25.8182 28.1691 -1.33404 5.28512 -97137.3 -802253 21854.3 -282152 194575 330306 
153 1 27.5512 26.341 -1.34774 0.238231 -1.01767e+06 -682639 -480842 -253472 573509 -82770.7 
92 1 27.5028 28.1182 -3.20004 0.118854 -295126 30223.6 291135 -289152 212755 29622.8 
91 1 29.3827 26.2517 -3.16722 0.553536 -255888 -231260 490212 288505 113925 83006.7 
154 1 29.1972 28.0833 -1.30177 0.427297 102920 223082 180505 -290169 193128 24601.6 
157 1 31.0135 26.1764 -1.17283 0.566192 344519 585435 232149 112159 89964.4 -22326 
96 1 31.1604 28.0541 -3.18323 0.436038 264755 473320 1.00417e+06 79909.7 -29689 215000 
95 1 32.7026 26.1713 -3.14635 0.516491 175415 -396886 668250 468135 65135.1 -135364 
158 1 32.9 28.1453 -1.29403 0.380234 -104915 125268 709445 282218 -260033 47816.2 
2883 1 34.5219 26.35 -1.2206 0.50965 1234.25 -44584.6 378279 502553 -180787 262426 
2814 1 34.7423 28.0296 -3.16155 0.560354 -74239.8 -77755.2 -148387 -100359 -256459 -3109.96 
99 1 23.4927 30.6089 -2.77044 5.14939 -764271 -507893 1475.28 -90875.9 140434 -123757 
165 1 25.1315 30.5475 -0.844522 0.162063 -529027 -108702 224476 -189905 39842.2 -108908 
113 1 22.7717 31.137 -0.350744 22.0281 13699.1 446491 958046 308891 -19075.4 -343066 
104 1 25.1719 32.3769 -2.73266 0.14121 -487339 513096 794283 -79994.5 16849.5 -153096 
108 1 27.5221 31.727 -3.16496 6.16574 -223636 44804.4 406580 30622.5 -254277 78469.7 
103 1 25.8143 29.9071 -3.21002 5.26935 -436792 -43195.6 477440 -964.505 328839 -184277 
169 1 27.5727 30.0334 -1.27547 5.43882 -530206 -205968 -324783 -240356 -101309 422515 
166 1 26.8457 32.4748 -0.786201 0.565123 472977 194164 421678 244317 172766 -418491 
170 1 29.3336 31.6735 -1.45927 6.58205 -260543 -314174 291979 -598397 -85482.3 251200 
107 1 29.2512 29.8586 -3.2354 0.143261 472764 22918.3 508157 -199346 236564 -275857 
173 1 31.0815 29.9222 -1.26045 0.219308 393590 394392 818630 161526 8519.05 67446.2 
112 1 31.1075 31.6139 -3.32306 0.232555 -584065 -237749 127469 562783 18629.8 -140977 
111 1 32.8838 29.8913 -3.20354 0.192533 156758 187772 397751 -94628 -7131.23 188076 
174 1 32.8548 31.68 -1.32893 0.116616 142262 209830 499746 -11156.2 -90310.5 -277777 
2901 1 34.637 29.8223 -1.35713 0.142871 82998.7 -165383 529503 -315278 -256397 -26884.2 
2832 1 34.698 31.6495 -3.17032 0.31773 193117 338635 424490 -68896.7 -281746 -109760 
52 1 22.8051 32.9037 -2.27434 20.3695 543575 1.03306e+06 1.49573e+06 516399 369537 -132639 
1283 1 24.6159 34.8583 -2.18655 5.6368 279209 389373 407437 201974 130227 -50961.3 
114 1 24.4803 32.9998 -0.240129 5.72477 -66945.1 105520 343380 175888 395212 191551 
1357 1 26.3429 34.8181 -0.384836 0.10018 208762 -162019 789991 49436.4 -275001 -256937 
119 1 27.0855 34.1964 -2.81629 0.404091 491400 -72452 410464 -166862 70421.6 37688.6 
185 1 28.8535 34.2145 -0.834293 0.542283 -124689 123509 569702 -173506 181824 235147 
124 1 28.8257 35.9157 -2.78576 0.178879 213264 201512 -78400.7 -146547 39791.5 67876.3 
123 1 29.4829 33.383 -3.29993 5.5188 -352627 -153836 -183125 293609 -161059 -30079 
128 1 31.2493 35.2191 -3.28497 5.434 -590322 -225731 -415694 243344 -132513 112514 
186 1 30.5514 35.9054 -0.899454 0.1801 -394316 -156887 647625 -741907 149512 -322951 
189 1 31.1032 33.4054 -1.44172 6.12107 -1.13555e+06 -425251 563484 -237621 -140897 -72678.2 
127 1 32.8876 33.4109 -3.31685 0.234938 -85915.6 -357756 141265 185742 -126760 -208163 
190 1 32.8758 35.0188 -1.42839 5.7278 -793631 -244446 108014 44359 -369713 -133036 
2919 1 34.6957 33.4194 -1.31803 0.289871 -117918 -136574 333157 217253 -127116 -180149 
2850 1 34.7828 35.0421 -3.2828 0.312239 -42149.8 8940.85 387751 -223055 653573 5540.52 
129 1 21.8623 25.1365 1.00923 28.8671 234256 1.08564e+06 619287 -196930 -149817 -312395 
193 1 21.8916 23.2874 2.80755 57.7241 341635 335953 1.34535e+06 3707.18 -33715.3 -77906.2 
131 1 22.8321 22.7541 0.476125 36.5178 386902 172180 548911 -436901 -1903.45 312867 
197 1 24.2763 22.8335 2.51097 14.0391 102563 -103058 298338 -48660.2 188778 -154958 
136 1 24.2786 24.635 0.485977 5.26287 -401800 -196103 332451 -444934 -115339 -57231.7 
194 1 23.4356 25.1247 2.9059 4.21457 -616010 -86530.1 414325 -359538 -96673.2 121644 
135 1 25.9162 22.7277 0.633242 17.4617 1.16e+06 188850 1.17662e+06 -298498 -13039.3 70802.4 
198 1 25.8794 24.6873 2.50613 5.15302 -903446 -744527 526561 -179723 214849 -243838 
201 1 27.4935 22.859 2.66269 15.0891 473543 -118029 681790 -61205.5 -450291 -41468.6 
140 1 27.5123 24.5277 0.618159 0.287742 -429392 -655511 424156 -314568 258758 116215 
139 1 29.2317 22.6966 0.682343 16.0709 1.01409e+06 273227 1.31747e+06 -189587 13907.1 -12188.8 
202 1 29.2581 24.5266 2.55338 0.134709 -618411 -591449 254292 126564 -441506 129501 
205 1 30.9791 22.8159 2.59085 17.0867 1.03351e+06 9155.3 953755 358507 267864 -44667.3 
144 1 30.993 24.4124 0.608207 0.297915 124529 -533958 275456 28202.3 104108 257482 
206 1 32.8216 24.6121 2.5075 0.362487 334991 -408253 512326 229146 5223.42 87376.9 
143 1 32.7432 22.7228 0.730757 17.505 736823 197730 823661 272520 19331.7 144717 
2937 1 34.5494 22.874 2.47164 15.0979 388849 -109067 570099 -71462.9 -212409 27046 
2868 1 34.6042 24.4557 0.488231 0.897689 -183227 -351028 29724.7 -165335 351135 413980 
147 1 23.4543 27.039 1.04171 5.62136 -324704 -43827.6 -191811 -331013 -313425 -245832 
213 1 25.0724 26.9871 2.91844 0.344109 -205267 -162457 626612 -146100 -286757 -265001 
152 1 25.0551 28.8657 1.07194 0.397576 -394309 -114163 -260180 -535240 235267 -40836 
161 1 22.7101 27.6634 3.38085 23.2253 293237 1.00662e+06 850209 -25693.2 225220 281386 
151 1 26.0286 26.4713 0.429656 5.29329 -143851 -137865 -32664.3 -97647.8 394366 429671 
217 1 27.598 26.3474 2.46102 5.23951 -795391 -933702 316639 -770661 84695.6 -308254 
156 1 27.6486 28.2947 0.531412 4.81625 -610167 -1.40968e+06 -421175 -732709 527655 -7452.15 
214 1 26.8612 28.7184 2.87769 0.487333 -809813 -358369 422771 -131909 139882 67880.5 
218 1 29.1728 28.0987 2.581 5.50175 -834195 -261981 636278 -391085 4416.1 -47421.5 
155 1 29.2159 26.2931 0.550723 0.271162 27449.9 251494 133770 -230981 355683 11483.8 
221 1 31.0226 26.3639 2.4984 0.164126 638840 657265 915093 273025 308806 238357 
160 1 31.002 28.1436 0.587827 0.190048 1.02632e+06 480137 1.07276e+06 -127166 -61341.1 92054.4 
159 1 32.7737 26.3125 0.665572 0.164556 395262 927352 560006 -65495.3 51930.3 349886 
222 1 32.8334 28.258 2.60971 0.715954 -228297 212356 130090 107762 297077 -158239 
2955 1 34.5616 26.3584 2.54528 0.142128 -429268 -27988.6 651546 -598937 -271898 260411 
2886 1 34.5185 28.1526 0.658028 0.218598 -168081 -126024 288522 142130 -231374 -41909.3 
115 1 24.3412 31.2745 1.51988 5.5804 315321 187232 185608 88478 -177374 395938 
100 1 22.6886 29.3436 1.5926 23.4592 -24036.5 614553 844409 257540 19791.3 141595 
162 1 24.4338 29.4416 3.34249 5.56769 -468654 -283473 -56308.2 -341429 93610.5 -127558 
167 1 26.8702 30.5401 1.09662 0.332205 -76895.8 -72981.2 -40315.2 181351 85994.5 -259915 
233 1 28.4763 30.5607 3.03203 0.593056 -175827 151069 98629.7 -152175 55185.1 -347015 
181 1 26.1113 31.1682 3.43362 0.255334 -405090 -242142 194211 -356156 242973 20776.6 
172 1 28.7179 32.4852 1.01499 0.648482 -91437.4 -188767 1.07499e+06 147706 -42985.7 -119162 
171 1 29.2263 30.0196 0.536363 6.33267 -921018 -226248 751597 -789190 -118891 -102679 
237 1 30.9777 29.8473 2.56592 5.32623 79402.7 -222265 760354 90461.6 11598.8 22639 
176 1 31.0636 31.6985 0.608249 5.52841 50912.9 93793.7 619305 841.321 294039 -362326 
234 1 30.3808 32.2447 2.95385 0.211768 459532 -285817 224315 -53490.7 277744 -253078 
175 1 32.8183 29.8701 0.63394 0.104755 -285590 -429982 416989 -14307.1 -281841 -114773 
238 1 32.8126 31.5395 2.55088 5.14349 -384613 -314835 393590 375319 -49385 -155844 
2973 1 34.5944 29.9374 2.52084 0.479312 -873676 -606015 343342 -214803 -184791 -159552 
2904 1 34.554 31.578 0.597222 0.212513 122368 -187070 686265 -90780.8 -110860 113648 
1353 1 23.9011 35.4051 0.0965029 11.3734 167688 628703 443710 -4163.94 245478 -67671.1 
116 1 23.7711 33.7139 1.99926 11.3207 550715 1.09007e+06 722757 4063.79 102480 -396395 
1355 1 25.5724 35.4897 2.04236 5.96765 -523891 167465 174267 -92065.2 -3123.83 -330495 
1359 1 28.0625 34.7843 1.53902 0.120013 67887.7 -282617 345006 -249455 173949 -363916 
120 1 26.272 33.0189 1.60403 0.260052 207796 699835 -161638 -138092 -57807.5 -189708 
182 1 27.8534 32.9997 3.51477 0.746588 -113177 -238838 -501166 258123 -42616.6 -117155 
192 1 32.3499 35.7403 1.06882 0.333042 -579924 -755014 121336 -137343 194117 -311385 
1433 1 29.8791 34.6497 3.38862 0.429526 -340698 -92029.4 -785677 -25520.5 160477 -293412 
187 1 30.5379 34.1067 1.1071 0.276446 -689486 -633622 75478.7 -375086 -42964.5 -280797 
253 1 32.2302 33.9356 2.96256 0.199553 -702740 -94082.8 350244 -94073.1 207667 -180405 
191 1 32.9172 33.4093 0.511125 6.12027 -267665 -761260 306788 122309 225003 -239315 
2991 1 34.6182 33.3414 2.46948 6.15407 -249542 -320599 723203 28827.5 -141454 -373857 
2922 1 34.654 35.1607 0.521822 6.32194 -235542 -98229.8 150512 34563.4 198147 -106267 
254 1 34.0161 35.6234 2.96457 0.382958 173662 -351570 533605 80164.3 62098.2 -447686 
195 1 23.491 23.455 4.815 21.9069 -1.10967e+06 -648739 878773 -336193 201336 121589 
261 1 24.9665 23.4936 6.93668 18.6597 727846 42164.4 1.21955e+06 25887 -270575 96585.9 
200 1 25.1017 25.1052 4.87501 0.702444 -1.37102e+06 -725817 539574 -469821 412572 -359247 
132 1 22.6444 24.3252 7.09806 58.228 900574 369983 1.18674e+06 165029 45624.5 317445 
199 1 25.7363 22.7817 4.53413 15.3448 -409369 -48011.7 653952 310821 -212636 -237924 
204 1 27.5158 24.6336 4.48409 5.22191 -57042.9 -804495 190375 45677.3 45132.5 178831 
265 1 27.4653 22.9624 6.25599 12.4402 651517 -124296 480913 -327343 -434003 358687 
262 1 26.9184 25.3073 6.95517 0.970622 -607664 132929 568180 241127 262896 106958 
203 1 29.1826 22.7578 4.39122 18.2208 438355 371021 641029 128.028 -209562 296773 
266 1 29.2556 24.6967 6.42472 4.76513 -753746 -263176 259246 -200357 -92942.8 312970 
208 1 30.8869 24.5869 4.34388 1.01131 436821 -239024 397303 40600.1 -305235 120035 
269 1 30.9643 22.945 6.25234 14.6599 1.03616e+06 136163 1.29525e+06 -12591.3 -12053.3 63101.6 
207 1 32.9354 22.9461 4.51677 12.7378 662992 8079.53 745664 -742458 -141967 -55446.6 
270 1 32.8392 24.5153 6.46197 0.858193 -59166.6 -550942 482057 -371455 -232426 -134015 
3009 1 34.4683 22.7216 6.38846 16.5395 101194 -123795 466847 96298.7 -365023 -278657 
2940 1 34.6234 24.5405 4.40089 0.319908 -1.20667e+06 -1.71136e+06 364856 -594884 -47704.5 -186122 
2939 1 36.1233 22.6841 4.42504 16.6233 964148 14413.6 1.21654e+06 334906 -308905 -121681 
148 1 22.8806 25.9074 5.28747 16.8031 -455995 557872 976196 2546.97 190571 230902 
163 1 24.4747 27.7331 5.29597 4.89513 -644905 494325 59917.4 -353984 485459 -57739 
209 1 24.5857 25.8695 7.21441 6.14173 -720701 -525820 1.17284e+06 -264898 66762.7 -310979 
215 1 26.7917 26.9885 4.82893 0.332708 116373 385900 1.13635e+06 135564 -28136.7 -131462 
281 1 28.495 27.233 6.82879 0.93837 86431.4 -112972 803803 -502723 306262 -74910.9 
220 1 28.5903 28.8231 4.91296 0.260031 233307 -384683 372907 -278704 -13140.8 216249 
219 1 29.2599 26.4128 4.44903 5.16052 -30110 -267959 509437 137265 -64779.6 284834 
224 1 31.1209 28.1459 4.43713 5.79848 -32259 -157558 227165 -499728 -126.894 285814 
285 1 30.9425 26.4353 6.40497 5.91767 -20512.8 -61515 597379 -938075 -65220.3 248054 
282 1 30.2797 28.8536 6.84403 0.235313 -160949 -536325 737470 -857605 36257.7 33113.1 
223 1 32.8163 26.2492 4.52829 0.598329 67368.3 273786 539428 -118022 -230809 -177868 
286 1 32.6916 28.0722 6.36513 5.373 -699726 -536136 -168930 -568459 -128503 74709.9 
3027 1 34.5281 26.2571 6.31009 0.163211 -636197 -575911 64407.2 -673115 -420316 153087 
2958 1 34.4416 28.068 4.54713 0.670072 -466328 -367551 -4556.05 -191506 -307731 -139006 
177 1 23.648 31.7657 3.9583 14.3596 366776 1.18825e+06 943208 135146 -170897 158880 
164 1 23.5508 30.1168 5.75859 13.2081 484646 1.1618e+06 878353 8735.49 -472362 410749 
179 1 25.343 31.9673 5.72171 4.92102 -214764 -170490 -265301 240971 -187106 117331 
168 1 26.1863 29.5192 5.32675 0.566842 448200 449615 71722.7 -378718 420270 15660.9 
183 1 27.996 31.2641 5.30227 0.703402 -276353 -336869 -544928 -309744 540651 -350288 
235 1 30.3239 30.5477 4.96668 0.209941 -682987 -693983 548534 -70324 51874.1 34300 
301 1 32.0499 30.466 6.83883 0.398882 -141371 -381795 159464 -323201 142683 -60939.9 
240 1 32.2082 32.1974 4.98479 0.246421 165306 -721228 881127 -363012 396492 -175912 
239 1 32.7559 29.8862 4.46264 5.68188 -569335 -1.42123e+06 -233251 -171098 -89239 -396570 
2976 1 34.6732 31.5379 4.50607 5.51913 161020 -26236.4 579173 -145794 -97570.3 -123940 
3045 1 34.4731 29.7845 6.33168 5.81869 435719 -73473 3862.68 -252749 -271075 -117752 
302 1 33.9526 32.1808 7.12337 1.40959 8070.95 -104295 33875.5 -353136 370402 203030 
1425 1 23.8215 35.5257 3.77265 16.3365 -83989.5 805365 417746 -203817 18822.2 -113453 
180 1 23.7492 33.7687 5.73566 17.7135 -110250 594562 1.24441e+06 77448.4 145829 127796 
178 1 25.5005 33.6077 3.9014 5.58523 -632808 214199 -445409 298192 86400.7 95694.6 
1427 1 25.448 35.4925 5.67879 0.35449 -770586 -224378 288139 -46658.6 -221804 161219 
1429 1 27.35 35.4185 3.84215 5.87197 -79623 -648395 -547844 257672 -369107 20508.1 
184 1 27.205 33.7123 5.69514 5.02025 -327036 -180151 -1.48469e+06 105970 -165657 -187847 
1431 1 29.093 35.4246 5.58077 4.99003 -614991 -301474 -526444 -96045.2 -236128 44297.6 
1435 1 31.5123 34.6382 5.25276 0.325628 -319927 -286256 -16239.1 -170892 165831 -366841 
188 1 29.7453 32.9063 5.29281 0.323737 -75260.3 -635326 173740 -481051 322988 -279933 
255 1 33.9614 33.866 5.0427 0.741297 259750 -139413 1.3716e+06 -96286.4 874.23 -304392 
2994 1 35.8053 35.7449 4.88487 0.269261 197733 -232696 1.31501e+06 -106276 217794 -327615 
3063 1 35.6503 33.8964 6.95854 0.703162 407695 -639105 1.50248e+06 -120824 12847.6 -427225 
196 1 24.2316 24.5097 9.55164 14.2842 415421 968140 2.61385e+06 -299316 -21701.3 -4353.66 
263 1 26.5939 23.6947 8.79267 14.4833 1.12245e+06 -380257 898831 -365764 -220081 214728 
329 1 28.4618 23.5648 10.6309 17.8866 1.26882e+06 37076.9 1.09331e+06 -241328 -6929.09 324551 
268 1 28.591 25.2164 8.80458 0.637209 -140014 181594 -84669.6 -138929 -160542 -101869 
267 1 29.1166 22.8757 8.12819 15.3735 1.41122e+06 148117 1.00631e+06 -234145 -77496.8 299254 
272 1 30.9593 24.6656 8.22417 5.36192 -203516 107890 -482853 -150978 -270218 -3340.16 
333 1 30.9145 22.7799 9.98613 15.8112 842797 364837 895759 -292045 75633.1 58815.6 
330 1 30.4034 25.2118 10.5828 0.261225 -587786 378823 -109674 -11596.5 33456.8 118472 
271 1 32.693 22.5976 8.21539 13.0171 1.18776e+06 703978 1.20519e+06 -262862 196201 4608.25 
334 1 32.6959 24.5303 10.0025 5.50446 -579342 -107857 -234736 -91535 200334 99140 
3012 1 34.475 24.391 8.25983 0.372907 -398030 -562968 -472316 19036.9 -221984 -26602.3 
3081 1 34.5244 22.6795 10.0037 16.5608 818659 -124935 526587 -375935 111546 122829 
225 1 23.4479 28.1237 7.42253 15.9907 538299 1.36343e+06 77050 335448 332585 343232 
212 1 24.2367 27.5133 9.62614 9.98466 431693 1.16171e+06 929965 463519 -226339 420025 
210 1 26.0414 27.7446 7.3343 1.85338 37233 -1.01085e+06 1.72105e+06 -704152 -287700 -49662.9 
211 1 26.1153 26.005 9.34775 4.46249 -104961 -412226 1.09459e+06 -182591 186910 165892 
216 1 27.9258 27.7161 9.30649 4.68309 416722 637624 1.25076e+06 -237539 40737.1 267479 
283 1 30.3445 27.0738 8.80504 0.0998984 307405 91199.3 1.01351e+06 83038.6 280524 -80744.8 
349 1 32.2039 26.9759 10.7382 0.469395 22190.6 -931316 -474234 -44825.1 -324584 -19964 
288 1 32.1749 28.7955 8.80602 0.201681 -199873 -470086 405444 -383336 230059 -187402 
287 1 32.7467 26.4218 8.28244 5.96126 -96617.1 -424299 402997 -528383 -61771.6 214133 
3030 1 34.5195 28.0423 8.18435 5.90368 -517798 -670140 299548 -442860 -94302.9 -21374.7 
3099 1 34.5874 26.1998 10.0628 5.83729 -159009 22504 -82391.4 -17404.4 51842.1 1372.53 
350 1 33.9999 28.6976 10.6409 0.218833 -281440 -20137.7 518033 -249600 -58897.4 114332 
241 1 23.662 31.9856 7.61222 16.0643 210652 963759 973996 45772.4 -28404.9 -210171 
228 1 23.5908 29.9581 9.30149 16.0445 385997 1.13578e+06 948800 39296.5 292468 104954 
226 1 25.2446 30.0133 7.4624 6.50105 -574384 -13761.4 -1.09033e+06 876952 94222.8 -264904 
243 1 25.4881 31.7529 9.30978 6.19616 -5666.57 70395.3 -356904 227785 116971 26326 
245 1 27.2147 31.8654 7.51588 8.27418 -646006 -1e+06 -981862 584910 231085 8067.54 
229 1 27.7357 29.5061 7.46823 3.86331 507780 -678636 1.57663e+06 -53795.8 -302988 -24513.9 
227 1 26.0541 29.3522 9.73531 6.08726 564206 367638 181494 393872 77562.3 607667 
232 1 28.0286 31.1519 9.66983 5.92156 -107429 200084 148474 375886 -687988 161748 
230 1 29.6622 31.2676 7.43754 2.44087 147327 -241146 1.32519e+06 53927 44492.2 -11824.4 
231 1 29.6944 29.4688 9.29451 4.7586 409826 -100681 900874 341080 83768.9 -197413 
236 1 31.6216 31.2407 9.24387 4.39269 200803 133388 949238 329061 116633 -444094 
303 1 33.9578 30.4115 8.76498 0.239458 -209596 -919367 395115 -261171 223929 442360 
3048 1 35.8724 32.098 8.89634 0.635945 -571347 -508131 -161221 21925.3 185754 -47405.4 
3117 1 35.737 30.4808 10.7277 0.45885 -277353 -742647 365221 -171756 252623 160017 
1497 1 23.7825 35.6037 7.58496 15.5763 579303 1.72224e+06 1.2997e+06 -119213 20833.5 -301850 
244 1 23.7676 33.6437 9.45093 16.9747 271671 1.02688e+06 875567 29179.2 -221071 -263278 
242 1 25.5631 33.6635 7.60542 0.325065 -439089 -159566 2909.51 -45519.2 -61367.5 -235401 
1499 1 25.5912 35.4501 9.38835 0.166126 -181351 106293 281519 247646 56332.7 -200400 
1501 1 27.2782 35.4956 7.48589 0.202388 -304528 -345386 42444.4 19743.6 -163924 94883.6 
248 1 27.304 33.6461 9.34868 5.11821 -575794 -251497 -1.58726e+06 134192 198587 -47794.6 
246 1 28.8844 33.6154 7.49255 6.45227 -568935 -803061 -1.26719e+06 186538 -93490.4 -99428.1 
1503 1 29.0407 35.4199 9.26745 5.62722 -62821.3 -332135 -599045 -570648 -69950.6 25642.8 
249 1 31.4873 32.9395 7.3452 3.55722 729792 -135045 1.31809e+06 -286779 92602.4 27138.7 
1505 1 30.7894 35.3203 7.51146 7.26628 -825361 -1.01154e+06 -1.51089e+06 720453 -29838.8 8283.69 
247 1 29.8062 32.8256 9.56976 5.06621 -373663 305697 84921.6 24960.5 -733417 273030 
252 1 31.7045 34.4943 9.56896 5.09879 -33207.1 -484015 -274905 -118518 -391985 738329 
250 1 33.224 34.7487 7.50053 4.39103 -86843.5 -422928 1.45535e+06 -440188 395293 89857.8 
251 1 33.4756 32.8516 9.37887 4.88822 -459965 -234103 496399 -259180 353908 -604271 
256 1 35.2585 34.4333 9.54552 6.43589 77939.6 -68578.6 1.26036e+06 -276214 132661 30295.5 
1507 1 33.4583 36.1451 9.75946 5.98947 260591 310950 733310 -278650 -320682 228099 
257 1 23.9395 23.775 12.1349 41.9225 -286657 12895.1 993247 148501 -85500.2 237045 
260 1 23.9212 25.3989 14.1008 16.9531 -60983.9 -1.03567e+06 468251 56000.2 -68785.8 45657 
259 1 25.6148 23.6249 13.8175 18.0855 -314067 -65981.1 393436 284537 -443095 -359545 
258 1 26.0712 24.4054 11.2565 7.94328 -313242 -36417.1 891441 180020 184641 164880 
264 1 28.083 24.1685 13.1563 8.76862 693238 376479 900577 -15676.9 71556.4 -141017 
397 1 32.1698 23.1961 14.2863 17.2569 392118 460765 831545 9918.19 -82073.1 -167729 
331 1 30.3647 23.4988 12.4228 16.2813 10105.6 75303.7 1.05248e+06 -60851.7 239536 188968 
336 1 32.2138 25.1399 12.3667 0.331193 -791055 -764284 -369518 -539244 212884 -66570 
335 1 32.6295 22.7579 11.8122 14.2376 351147 -178980 765025 -76079.8 130330 -53282.6 
3153 1 34.5317 22.6353 13.589 13.1932 913801 -143069 1.19373e+06 -167036 96606.6 242135 
3084 1 34.5418 24.3745 11.8567 5.8077 -343168 -504943 -175535 -469921 293235 133043 
398 1 34.0055 24.9612 14.3306 0.367985 -857485 198061 606882 88567.8 -42147 -234746 
273 1 24.4107 26.0774 11.6293 9.12449 -376814 -656682 227192 47111.7 -114841 -225183 
276 1 24.3474 27.6263 13.495 11.0631 365959 -612295 472798 -272437 18508.3 79655.2 
274 1 26.229 27.7001 11.5243 0.467069 -768877 -938744 397550 -104232 -150381 621018 
277 1 28.0929 25.9659 11.2242 5.0506 230538 24576.8 1.10382e+06 -364542 118433 -74682.3 
275 1 26.2915 25.9897 13.3227 5.87882 -95457.6 -128740 15150.3 -422376 -129777 540834 
280 1 28.0377 27.6261 13.3765 0.388005 -89327.4 -538253 107356 -479311 -281942 215363 
278 1 29.6539 27.7918 11.2683 5.26042 -538171 -268520 757769 -463908 -75966.9 -103563 
279 1 29.9071 25.9185 13.0851 5.06701 -365143 266993 440793 -119814 -428280 -177554 
284 1 31.6167 27.6911 13.0601 4.84673 -688505 -453320 68745 -3601.01 323225 27930.8 
3171 1 35.7097 26.7718 14.4523 0.280661 -426690 101210 968311 -165418 416991 -267000 
351 1 33.8977 26.815 12.4315 0.452845 -845824 7953.56 411103 -545215 -324376 -100997 
3102 1 35.7259 28.5307 12.5026 0.169388 -71954.2 314562 1.13566e+06 -258583 -28269.1 -54255.7 
305 1 23.7239 31.7318 11.1159 15.4236 350210 1.08021e+06 736158 -74168.7 114429 233607 
289 1 24.4321 29.2288 11.5947 9.23132 -639387 756302 375323 502906 174719 239049 
292 1 24.3739 31.2089 13.4719 10.5572 315345 966799 843698 -139214 77601.1 -68581.5 
291 1 26.1689 29.3772 13.4238 0.24414 -180935 24411.3 -66408.9 -261019 -103930 47148.8 
296 1 28.0177 31.0991 13.3676 0.126353 354108 256525 398629 -376112 -137439 -106535 
293 1 27.9403 29.3718 11.5873 0.779721 -863007 -991362 545197 -828.092 109106 -10964.1 
290 1 26.1345 31.1258 11.6331 6.11245 86328.3 -57634.8 134508 75229.1 -260451 399555 
300 1 31.586 31.0144 13.0993 0.863432 -492142 -179360 312901 62632.2 48281.4 367652 
295 1 29.8812 29.3084 13.3471 0.553861 -716562 -404127 155109 -84260.3 -176682 42755.4 
297 1 31.5805 29.2619 11.1857 5.46546 -156186 -832636 350936 130706 310114 -110638 
294 1 29.8108 30.9616 11.3583 0.550613 -312236 380825 274642 -161209 -717571 142396 
304 1 35.2122 30.9992 13.1958 5.40052 -834048 -287775 -74178.1 -327152 -137997 145153 
298 1 33.3876 31.0526 11.3591 6.01289 -139578 322880 742763 172670 325980 68077.5 
299 1 33.4245 29.3003 13.2054 6.00151 -638821 -144195 146055 -427914 -90120.5 98961.8 
308 1 23.7194 33.6143 12.9046 14.7051 452036 1.03765e+06 1.46007e+06 -204877 101285 222616 
1569 1 23.8052 35.5255 11.2166 16.942 76563.7 467012 783647 -643760 -64017.5 203061 