ITEM: TIMESTEP
11400000
ITEM: NUMBER OF ATOMS
5780
ITEM: BOX BOUNDS pp pp pp
2.6136160444526646e+00 6.9686383955562874e+01
2.6136160444526646e+00 6.9686383955562874e+01
-3.6338147635548288e+00 7.5933814763570382e+01
ITEM: ATOMS id type x y z c_csym c_2[1] c_2[2] c_2[3] c_2[4] c_2[5] c_2[6] 
65 1 21.8912 22.1007 0.0133974 29.6034 609552 308148 521098 -185856 -293658 229680 
4 1 21.7401 23.5785 -1.93425 13.7897 328000 299670 303820 43503.2 -328589 -161878 
3 1 23.5416 21.8236 -1.92279 17.9526 720242 789351 1.57554e+06 19679.8 271446 25332.4 
66 1 23.4314 23.944 -0.202001 1.28592 -1.02858e+06 -1.00172e+06 -225585 -449361 -38835.6 521154 
69 1 25.1312 22.1039 0.130894 14.7166 1.77477e+06 540853 1.76562e+06 -112493 -129642 -41339.1 
8 1 25.2263 23.7083 -1.96527 0.52379 -463369 -363725 238508 -175130 53037.2 -339538 
7 1 27.0012 21.9208 -1.8102 16.3154 948452 533869 858930 -43900.7 -396658 9801.59 
70 1 27.061 23.7057 0.0849601 0.238648 405462 -322315 459441 198952 10269.2 86785.5 
73 1 28.6882 21.8096 0.00423231 18.0049 1.13463e+06 461117 1.16806e+06 154248 -589048 212289 
12 1 28.9108 23.5497 -1.79541 0.668995 65090.6 -170407 87594 -122663 -475906 -16816 
11 1 30.5832 21.6677 -1.95808 10.8838 1.10097e+06 -138694 1.50381e+06 -440616 -199517 -50025.4 
74 1 30.6931 23.4944 -0.184361 0.926271 -476723 -238173 -238570 270164 -100514 172408 
77 1 32.4204 21.7534 -0.147818 15.8756 1.05591e+06 -112017 893651 121910 49830.3 -10578.1 
16 1 32.1914 23.4297 -2.03292 0.784389 -496777 -263153 103492 -26169.8 141971 270618 
15 1 33.9433 21.7888 -2.15895 15.2964 938823 305318 1.42732e+06 316531 23933.9 64761.2 
2793 1 35.8058 21.5884 -0.238072 19.4687 2.10544e+06 939010 1.99498e+06 -94568.9 -63210.5 -107240 
78 1 34.1132 23.5902 -0.167575 0.387725 219051 313445 561359 -538365 21957.4 161484 
2724 1 35.7872 23.4907 -2.16089 0.146142 -402728 -175288 839258 -47393.5 -285244 -4964.96 
81 1 21.638 25.6246 -0.305496 13.4774 -69938.6 476871 771019 215727 321031 325333 
20 1 21.503 27.4832 -1.89008 13.9434 445143 511261 459217 -388580 81861.8 87394.9 
19 1 23.489 25.5109 -1.93078 0.547326 -318458 -807302 -1.07591e+06 -270422 39250.7 1.16342e+06 
82 1 23.4584 27.3706 -0.0983502 0.390308 215447 -684251 -715450 -305170 103556 347399 
17 1 21.5854 25.5884 -3.52422 12.9192 -39504.2 1.06401e+06 1.42246e+06 -735270 -290322 44083 
24 1 25.3218 27.134 -1.84945 0.588558 54917.3 176854 430591 -178538 20738.9 162621 
85 1 25.2965 25.4803 0.0408192 0.378018 -823046 -462140 -732532 -398720 508661 491374 
23 1 27.0091 25.2997 -1.79801 0.885103 53453.7 -314202 143097 -239584 249423 -156150 
86 1 27.118 27.204 -0.0268298 0.259558 453067 181804 169696 -565979 91981.5 36161.3 
28 1 28.7438 27.1831 -1.9691 0.369127 215958 479216 38669.4 219838 143929 233961 
89 1 29.0412 25.4028 -0.0442157 0.867777 368216 381323 251201 -146624 317197 -94100.1 
27 1 30.5784 25.484 -1.94676 0.657154 -743232 8345.97 -538467 -379878 202489 294075 
90 1 30.6831 27.2529 -0.0416751 0.394778 -346288 -517508 -157548 -310403 85970.6 -202655 
32 1 32.3558 27.1068 -1.94628 0.259907 -17683.7 -146635 477971 127843 250391 115735 
93 1 32.285 25.4027 -0.121823 0.418364 -94380.1 -107716 374705 -143426 16908.6 310960 
2811 1 35.7679 25.3688 -0.329093 0.550167 -403177 -568509 217970 -65971.5 -366638 258700 
31 1 34.0079 25.268 -2.09322 0.236932 -254539 -121737 126277 84706.3 -147470 231225 
94 1 34.121 27.0689 -0.0704242 0.340825 -808242 -1100.18 350451 346098 -371827 -6493.52 
2742 1 35.7401 27.0375 -2.08225 0.538215 122536 -367032 43846.1 180436 -462860 267704 
36 1 21.5755 30.7434 -1.92716 15.2565 497059 936214 576061 -59705.2 227551 495680 
97 1 21.6125 29.1819 -0.0673426 14.649 411531 1.1058e+06 405424 61424.2 -189713 106268 
35 1 23.4771 28.9669 -1.85656 0.513225 175371 -224670 134740 -518614 191566 841333 
98 1 23.4797 30.9691 0.0771997 1.37826 -198487 241036 551305 109126 35650.2 67384.9 
113 1 21.5221 32.3934 0.0871682 16.8232 289122 1.41435e+06 1.94108e+06 286138 70663.2 37228 
40 1 25.1518 30.8201 -1.89439 0.0802434 -283375 217911 422103 -11595.9 -127101 92079.1 
101 1 25.2307 29.1098 0.075296 0.701422 134191 48346.4 198330 -491899 -206202 52564.3 
39 1 26.9628 29.0734 -1.9814 0.500591 -77927.8 -76529.8 397241 -273558 135673 410936 
102 1 26.9886 30.8731 -0.0301718 0.260865 -238481 -125327 308184 -26507.1 -272905 -35007.6 
44 1 28.7869 30.673 -2.01194 0.381909 54111.7 -261374 -48243.2 -426077 -24789.7 -246679 
105 1 28.7703 29.0781 -0.0713061 0.39554 -140740 88569.1 4625.8 -336811 233773 -7996.05 
43 1 30.6579 28.9859 -1.90355 0.443889 245889 118839 536286 71021 -128320 -5689.9 
106 1 30.6372 30.7552 -0.167333 0.149708 108465 -270931 -102332 140557 177396 6398.98 
48 1 32.4151 30.7127 -2.05327 0.194191 -383343 -426002 335389 -138704 -99806.5 143794 
109 1 32.4423 28.9526 -0.0728333 0.206701 -482961 -182509 268290 -420383 -174199 171772 
2829 1 35.9337 28.8578 -0.182327 0.303957 86192 380925 277665 -405571 -708819 12471.8 
47 1 34.2762 28.9694 -2.02077 0.762078 27128.5 -143288 704389 54665.6 60746 -275563 
110 1 34.1309 30.7175 -0.150253 0.167255 -115339 -205687 161787 -571764 -551356 -224674 
2760 1 35.8813 30.7197 -2.21271 0.440871 -943964 -1.04271e+06 -51538.2 -488701 95490.2 -140649 
2847 1 35.906 32.4175 -0.235885 0.231027 56925.8 220774 164632 62435.6 273957 -43607.6 
51 1 23.3511 32.5644 -1.85925 0.281948 245912 301556 466649 61811.2 -236788 -65224.2 
52 1 21.6337 34.4886 -1.75003 15.7392 227544 1.2018e+06 1.05506e+06 -208655 -28158.4 -279217 
114 1 23.2936 34.1605 0.109886 1.42241 -56903.8 553912 705868 469780 239192 -85835.4 
1353 1 21.7869 36.1174 0.212691 15.7855 244864 717595 744396 140498 -98131.3 -259029 
117 1 25.2474 32.6515 -0.0230776 0.480054 -445610 -102087 570458 -145167 -119281 5554.44 
56 1 25.1206 34.3981 -1.88474 0.137347 449796 -395023 172343 297681 -101502 472599 
55 1 26.9048 32.6265 -1.98214 0.247236 58832.4 384345 381947 -392456 56034.3 20158.1 
118 1 27.0386 34.3481 -0.0718093 0.132585 -109205 124531 748153 -498470 -123620 89753.6 
1287 1 27.0171 36.1161 -1.88459 0.130537 -196953 -385923 86082.8 194139 -502061 58359.4 
1357 1 25.1342 36.0317 0.086954 0.706722 812670 921198 788677 432806 121037 -291947 
1285 1 25.0566 36.12 -3.57817 0.975633 -419208 -817152 27011.2 416351 176427 127951 
60 1 28.7189 34.3155 -2.11899 0.589861 -155874 -63382.8 177735 -315371 -113372 -164288 
59 1 30.6823 32.462 -2.14414 0.530115 137250 -150954 -128987 138371 354286 -272941 
121 1 28.8662 32.5505 -0.218021 0.236957 780589 362619 753960 99387.6 -183838 248360 
122 1 30.7851 34.3396 -0.269803 0.652486 -141264 -682621 19756.8 452143 249853 416152 
64 1 32.4066 34.3757 -2.13113 0.273358 -362535 -89674.5 -590273 109990 419650 265368 
1291 1 30.537 36.0335 -2.02095 0.389944 -623267 -643460 -157359 235191 193197 131277 
1361 1 28.8366 35.981 -0.211407 0.516146 -299038 294344 -47916.7 -341438 -254503 172623 
1365 1 32.4626 36.1216 -0.172225 0.144939 -55673.9 -167899 545455 -362812 -74182.1 141603 
63 1 34.1454 32.467 -2.10181 0.241905 -448848 -79559.2 -262616 38197.1 -14389.5 -228606 
125 1 32.4378 32.6358 -0.255242 0.335779 -335170 -43644.7 238058 479239 170520 -117959 
2778 1 35.9614 34.3061 -2.19639 0.211657 103590 -75726.3 100690 -56083.2 293346 34571.7 
126 1 34.2826 34.3626 -0.261146 0.170785 11155.4 -57507.9 356418 -70734.2 -104487 -24303.6 
4242 1 36.0813 36.0871 -0.331855 0.0928975 -204059 -187135 75282.2 -94584 32708 124139 
68 1 21.5865 24.0208 1.62139 17.7297 260024 115842 326360 76928 171288 139396 
67 1 23.2416 22.284 2.00473 16.9598 411753 476135 1.10432e+06 196462 -557204 -206428 
130 1 23.5375 24.1415 3.69715 5.25078 -2.31397e+06 -763705 -399560 -308069 681927 106514 
129 1 21.5649 22.9185 3.80934 34.7394 104639 584381 994075 -424280 247186 282933 
133 1 25.0912 22.2374 3.75718 15.5587 143174 52823.4 473737 30741.3 425832 62228.2 
72 1 25.2198 23.9589 1.91598 0.387997 -87062.3 -640751 -592699 135073 323350 364631 
71 1 26.9315 22.002 2.05305 15.6929 1.25461e+06 160183 1.01413e+06 -149903 -29398.7 -384473 
134 1 27.0775 23.8017 3.64753 0.588249 392998 -188345 396309 -499930 -190067 -284843 
137 1 28.8742 21.6862 3.65552 17.6954 1.22753e+06 986581 1.66319e+06 -386366 -183518 208776 
76 1 28.8743 23.6478 1.88686 0.422671 -285224 43488.7 503757 218818 -375220 -20067.8 
75 1 30.5057 21.86 1.72042 14.9518 959627 147990 1.22424e+06 188013 23919.1 104947 
138 1 30.4822 23.574 3.7281 0.499738 685900 410595 476697 -146077 -611187 197279 
141 1 32.357 21.7326 3.75682 18.1852 1.64116e+06 718061 1.75894e+06 -340199 -146964 40871.9 
80 1 32.4679 23.4488 1.72557 0.811919 179151 21613.4 583656 -128631 -396442 -123232 
2796 1 35.8346 23.4562 1.59164 0.420993 -41475.5 -161780 919650 -20445.1 -411111 322119 
79 1 34.1664 21.6885 1.83653 16.7533 496324 104434 968415 -60613.2 -608226 -190476 
142 1 34.0383 23.5193 3.62101 0.363982 -3068.03 -545417 409028 241619 -499999 -23153.7 
2865 1 35.8221 21.8457 3.56555 16.2301 740797 229817 914445 100800 -613724 18634.8 
145 1 21.6192 25.5385 3.54427 14.2972 -216590 676966 1.1091e+06 106313 118030 -63453.5 
84 1 21.5166 27.2109 1.67334 15.8034 406850 1.29127e+06 1.38455e+06 -59465.4 131914 132002 
83 1 23.4721 25.6382 1.65343 0.52339 -1.01522e+06 -631881 -354762 -53083.7 417182 -15331.4 
146 1 23.4107 27.1694 3.63525 4.0249 -368926 432422 485501 160207 410200 -104064 
88 1 25.2323 27.2909 1.82422 0.306125 -8877.42 -286891 -48255.4 -273071 23150.2 161269 
149 1 25.364 25.672 3.70197 4.16742 -568099 -312929 13364.7 -331775 19537.2 30162.2 
87 1 27.1665 25.5453 1.78907 0.33804 -63306.3 -169145 -122901 -355434 -262100 257311 
150 1 27.1674 27.3499 3.72404 2.80552 -136196 320149 296692 -49639.4 -179731 145576 
92 1 28.9845 27.2157 1.85961 0.519106 -150769 60536 37566.5 -333095 -177278 149836 
153 1 28.8293 25.5315 3.70763 0.0752772 -481736 -742829 111308 -390570 -353677 229286 
91 1 30.7263 25.3661 1.87676 0.509561 -50022.1 197972 286137 -403385 -248729 12455.9 
154 1 30.5933 27.1927 3.68488 0.312399 -656156 -427365 -161118 -584960 -34724.5 -48622.3 
157 1 32.3929 25.3879 3.69898 0.217689 -196330 477208 159057 159588 -247107 378543 
96 1 32.3137 27.211 1.80369 0.209073 -321362 -122773 5728.01 -460938 -205502 191009 
2883 1 35.9053 25.3101 3.62577 0.24886 110520 685047 563138 16804.8 -212787 180154 
95 1 34.0951 25.3133 1.84371 0.505071 315036 32706.6 469081 -379505 62542.5 140283 
158 1 34.1326 27.2145 3.59829 0.161038 580841 76892.5 494761 -396178 -169603 37757.5 
2814 1 35.8335 27.0915 1.62274 0.283406 158057 408240 513054 -170186 -524966 127090 
161 1 21.7073 28.9697 3.78971 17.1915 768556 1.40895e+06 1.6179e+06 177811 256537 436042 
99 1 23.3167 28.9067 1.74027 1.33644 -345876 213027 237334 439321 123609 -267448 
100 1 21.6662 30.6968 2.01924 16.2009 271563 624192 834094 154510 -112654 123804 
162 1 23.4967 30.7855 3.84358 0.359144 -476362 -97372.8 624982 633069 309898 376674 
177 1 21.7472 32.4049 3.93152 16.8862 219746 1.0525e+06 1.13463e+06 619062 226364 47152.8 
165 1 25.2241 29.0398 3.67236 4.46363 737808 235772 -16346.7 266377 321816 -90473.5 
104 1 25.2551 30.7629 1.89635 0.330941 69236.6 -18473 111424 32426.1 -136366 4063.82 
103 1 27.1174 29.0182 1.72299 0.473407 16257.6 381840 -359719 -49539.4 80224.2 -59220.2 
166 1 27.1059 30.8021 3.65136 3.5862 292042 304128 -117691 402058 84441.8 138855 
169 1 28.9232 29.1595 3.58786 4.00267 192610 240816 301277 61488.8 131694 11326.3 
108 1 28.8629 30.8952 1.63714 0.473575 -45250.1 -184340 -178584 136441 -102073 27387.4 
107 1 30.6283 29.1005 1.66284 0.573497 -282209 -403723 -86869.2 -149264 154923 -8437.87 
170 1 30.6576 30.9311 3.55325 3.27536 -1.1259e+06 -727029 299018 827328 251807 36681.6 
173 1 32.2118 29.0103 3.73023 0.890146 -9166.92 105388 146985 -82996.4 108085 -194448 
112 1 32.3678 30.8591 1.81485 0.482165 -585564 -443708 94016.4 56302.3 120009 -500376 
2901 1 35.8763 28.9897 3.52034 0.134601 -339504 75665.6 685061 154383 -219930 177985 
111 1 34.0842 28.9686 1.81879 0.246896 -71384.9 -184411 124832 -383578 -665604 135803 
2832 1 35.8235 30.7032 1.6246 0.349374 -398350 -486355 -237589 367016 -218520 163468 
174 1 34.1798 30.7733 3.57864 0.212835 -143026 -29432.8 100458 358058 -315360 -87001.1 
115 1 23.4287 32.4734 2.03649 0.399105 195901 -298812 264215 395803 169500 68413.3 
116 1 21.8085 34.3223 2.08429 15.8968 -148737 1.10679e+06 882530 163359 52295.9 -18306.1 
178 1 23.5476 34.3592 3.84117 0.407299 -279777 446603 293039 573650 -47382.2 -145936 
1425 1 21.7893 36.0941 3.89829 17.996 213658 985156 1.19549e+06 55467.1 34222.9 22591.7 
1355 1 23.5259 36.1375 1.99627 0.43689 -326327 612865 488309 -29810.2 242071 93605.3 
181 1 25.2683 32.5875 3.95162 1.08453 39241.8 15930.5 241338 -2984.22 236792 383397 
119 1 26.9526 32.5116 1.86437 0.635874 -310904 -1.04344e+06 410824 819356 -128267 -211786 
120 1 25.3985 34.186 2.06285 1.2243 199252 -63236.3 645964 748785 127719 70198.5 
182 1 27.1993 34.2013 3.80775 0.412924 26690.4 291266 499465 39189.3 -352231 39523 
1359 1 27.1188 36.0858 1.9428 0.204775 130238 111890 995918 271671 -43553.9 -33238.7 
1429 1 25.4577 36.1059 3.91154 0.316614 81130.8 67490.6 125429 294998 -69930.7 177919 
185 1 29.0484 32.5446 3.65012 4.29175 -147398 -188187 910549 1.18092e+06 376813 -253056 
1363 1 30.5745 36.0017 1.6511 0.765405 81059.4 -133013 -44053.9 -106871 63891.1 307923 
1433 1 28.9419 36.0679 3.69739 0.262333 -393835 25142.6 484728 138067 -127235 -242547 
123 1 30.7318 32.6247 1.61223 0.268349 -474095 -336559 27993.8 273062 -68134.1 231715 
124 1 28.8701 34.3002 1.70747 0.252218 129506 203526 796155 -76158.6 -228936 124704 
186 1 30.7424 34.4101 3.55049 3.90944 166438 -187771 276132 192463 121006 -283582 
128 1 32.5239 34.3445 1.69366 0.244649 34628.6 -222273 -297557 -111654 -99663.7 19163.5 
189 1 32.469 32.6169 3.48756 4.14588 -45643.9 -276525 -286097 131598 -334058 -237001 
1437 1 32.5845 36.0863 3.4886 4.36846 -793769 -884227 248373 519846 316948 -143646 
2919 1 36.0279 32.4851 3.49922 0.377989 79842 41643.9 149676 -103493 -273781 330440 
2850 1 36.0057 34.2825 1.54982 0.201162 -85667.9 67858.4 374353 180428 -52085.1 -11703.3 
127 1 34.2389 32.5089 1.64052 0.10897 -562710 -416280 172724 256820 357997 -115677 
190 1 34.3262 34.4182 3.48505 3.95816 -630006 -227940 -57253.7 -160395 -258824 318429 
1367 1 34.361 36.1226 1.57224 0.277547 -164606 -495934 -520436 97151.4 -129594 -48732.9 
4323 1 36.0034 36.0665 3.50675 3.65889 -1.01801e+06 -913956 -568408 709728 -15885.2 -233536 
131 1 23.385 22.1475 5.43726 24.5258 434848 124675 1.06487e+06 17658.8 748799 -155028 
193 1 22.8499 23.0473 7.78641 21.1447 26600.4 -306226 532505 -554837 -201207 524970 
132 1 22.6136 24.4233 5.93177 11.0951 610375 541819 536445 8362.06 694726 610779 
194 1 24.5536 24.5814 7.9798 5.66893 -923406 -619981 60513.8 -1.36645e+06 167507 -187660 
197 1 25.1937 22.0906 7.37531 15.3959 985753 343296 1.3007e+06 -428344 393261 290205 
136 1 25.1479 23.9217 5.65387 5.30957 769216 -131079 372733 -115123 -299791 -32914.8 
135 1 26.9767 22.0213 5.57959 16.542 1.63779e+06 644659 1.5767e+06 -230397 36286.7 -144470 
198 1 27.0268 23.7046 7.46886 5.126 289259 133815 164936 -284912 -178756 -148335 
201 1 28.716 21.845 7.55084 19.5496 1.35612e+06 671150 1.50722e+06 69110.9 -149899 -125037 
140 1 28.7494 23.8176 5.60767 0.447927 19977.2 297468 398036 -232604 -157123 -68512 
139 1 30.4899 21.8841 5.67282 17.4047 1.42215e+06 391958 1.1765e+06 -184757 -232008 -1445.83 
202 1 30.4517 23.7518 7.39991 0.224165 505270 362027 284734 224450 41527.2 115326 
144 1 32.2195 23.7065 5.56483 0.362894 272322 3418.19 589734 141249 -46516 281473 
205 1 32.2553 21.9021 7.45376 17.9344 1.0033e+06 614133 949152 -24274.4 74521.1 32450.5 
2868 1 35.7932 23.5433 5.51533 0.19789 131682 -378375 507811 659633 -95753.5 280451 
143 1 33.9433 21.8511 5.69873 16.2801 534219 329384 572891 -38378.3 -343215 -221462 
206 1 34.1006 23.6622 7.41882 0.119831 388967 -70804.9 735401 63499.5 129264 -50265.4 
2937 1 35.7445 21.8252 7.34747 17.6426 1.02217e+06 188849 1.24342e+06 65073.6 -325538 259203 
147 1 24.2912 26.2846 5.89585 4.45679 583533 926044 924639 171341 414295 65163.9 
148 1 21.959 27.1764 5.68448 15.2647 178084 1.6474e+06 878529 -96564.5 200760 415532 
209 1 22.7714 26.4314 7.88256 8.14062 107972 1.3777e+06 867326 -356924 53302.8 -10039.2 
210 1 24.5409 28.0577 8.02181 5.85804 -184094 266973 762257 -303090 -436342 121654 
151 1 27.0005 25.6379 5.6322 4.91818 121380 613311 -680997 40503.9 -168971 -90987.7 
152 1 26.1722 28.1349 5.90685 5.67071 859171 873423 1.10044e+06 152182 -24381.8 173219 
213 1 26.2234 26.2664 7.75166 4.84814 154072 248838 64913.9 -264056 540300 -84150.5 
214 1 28.0469 28.0433 7.74997 4.9185 882165 441733 953909 -10728.1 231388 -36063.6 
217 1 28.7536 25.6079 7.34729 5.64674 -21948.9 -111431 -85835.6 13969.5 -158945 -229110 
156 1 28.8659 27.3926 5.49303 5.07507 -370509 -185387 -667043 -316413 -82819.2 -105914 
155 1 30.5579 25.5232 5.56471 0.0844059 -474358 -393305 62274.2 -19603 -66598.9 322050 
218 1 30.5679 27.3471 7.39651 6.07533 -128747 -55618.7 300824 -34763 -208066 120481 
221 1 32.374 25.5615 7.40557 0.294504 521142 -5007.56 278796 -46523.3 -230980 345915 
160 1 32.3759 27.2169 5.65344 0.601862 -466522 -418375 -249360 -405823 -300227 396539 
159 1 34.1949 25.3485 5.46859 0.430067 -79280.9 -50318.8 326910 253932 -96794.1 -22307.1 
2955 1 35.911 25.4228 7.42746 0.264603 -31588.8 116955 368850 17433.2 -669662 155466 
2886 1 35.9178 27.1789 5.51756 0.196393 -379474 301697 -29079.1 -153273 332756 -113859 
222 1 34.1956 27.2282 7.24171 0.656808 -843978 -69354.4 -168429 -314272 -340214 246406 
225 1 22.1891 29.004 7.57668 12.6388 -158227 594673 932399 -646314 372628 385963 
163 1 23.795 28.9082 5.6655 5.87325 -305794 655921 404111 -354551 822313 26032.3 
164 1 21.949 30.7262 5.80615 16.8706 228571 864487 848834 -242160 198839 464660 
226 1 23.8787 30.6358 7.56202 5.77311 46776.8 51876 261585 -939319 -144113 -97075.8 
167 1 28.0758 29.8402 5.84685 5.29367 1.10004e+06 1.01021e+06 1.31748e+06 -177269 100261 52204.9 
168 1 25.5839 30.6017 5.5944 6.49119 372541 -79369.3 407460 -761638 421774 -188460 
229 1 26.316 29.8593 8.02973 6.49308 116127 194874 789741 -321878 -526298 272803 
230 1 28.04 31.5869 7.94013 5.65147 421769 527377 796118 -276768 -68231.9 95126.2 
245 1 25.6576 32.4006 7.47548 5.79534 93679.9 395987 679890 -484712 295734 -39919.2 
183 1 27.2761 32.3982 5.58629 5.7485 515287 195414 60554.4 -666448 242827 -219144 
171 1 30.6183 29.0372 5.55464 5.33619 -564907 55700.5 -158114 -687879 212346 150793 
172 1 29.8555 31.6135 5.95866 6.38961 722564 897238 1.19112e+06 -677453 -159559 -75326.4 
234 1 31.6148 31.5154 7.7911 5.20854 497380 465995 647659 -112568 80891.3 -53875.5 
233 1 29.9148 29.7332 7.93718 6.52253 512582 466614 1.1143e+06 -431846 77596.6 -278366 
176 1 32.3354 30.7994 5.50823 5.42661 39570 -72019.4 -202114 -149062 -351579 -156463 
237 1 32.3833 29.1199 7.35878 5.34897 12671.8 -242050 -84199.8 -341773 -144759 166569 
175 1 34.0845 28.9707 5.43689 0.288426 66631.5 5845.12 86601.5 -256.446 -194415 194592 
2973 1 35.834 29.0832 7.2565 0.253198 -106077 -318192 303563 -291625 -31318.9 -119191 
238 1 34.0682 30.9361 7.24898 6.61518 4713.85 183701 639224 -391275 -194456 62304.8 
2904 1 35.9227 30.9128 5.37036 0.326638 506342 516388 111531 -87641.3 -439790 321806 
179 1 23.6238 32.5107 5.80621 0.403362 -143957 241266 500080 -120791 379899 -220122 
241 1 21.9115 32.467 7.72089 18.3006 737216 1.31169e+06 981961 -162568 40420.4 -402192 
1497 1 21.9042 36.0698 7.63089 16.1036 389536 1.26158e+06 930561 -227484 111117 15384.4 
180 1 21.9304 34.2538 5.79234 17.0144 -133957 793024 1.35155e+06 -5126.32 112810 -37299.1 
242 1 23.806 34.2541 7.61126 0.36614 -416303 -95431 -509561 -575196 -163884 -293248 
1427 1 23.5965 36.0112 5.77927 0.297429 -466964 -192135 167829 -76655.7 131519 342939 
184 1 25.4089 34.3907 5.73487 0.695267 14334.2 -102552 -58838.5 -53078.5 285691 -89220.3 
246 1 27.348 34.153 7.42481 6.17106 -148116 -108498 -554330 -857808 73213.6 -390295 
1501 1 25.411 36.0199 7.63807 0.620661 87631.3 -891332 -468898 -814352 26085.1 -376063 
1431 1 27.2315 36.0655 5.64322 0.284816 -421310 -301230 -155274 -80557.2 -390076 -423974 
188 1 29.0194 34.2011 5.63129 5.07474 449207 509550 -429700 -270536 -1393.41 -309939 
1505 1 29.0824 35.8892 7.42064 5.51872 -27966.7 -650808 -550089 236539 112916 -196019 
1435 1 30.8877 35.9427 5.42805 6.02072 231900 -119678 -133871 -33536.6 -32999.6 -254736 
187 1 31.6418 33.2859 5.85749 6.52913 788143 1.10985e+06 1.46291e+06 -433812 335142 27070.6 
249 1 29.8609 33.444 7.78305 4.87701 808857 640150 276380 86925.5 -191418 -36059.6 
250 1 31.7089 35.2222 7.76352 5.4283 259597 -5436.4 520027 -338696 -265677 -64731.3 
2922 1 35.917 34.3628 5.40547 5.44396 -254055 -265729 -446985 -152755 -58565.2 267392 
2991 1 35.8596 32.6686 7.23609 6.087 386202 -234073 341481 -42268.9 -10209.8 35674.5 
191 1 34.0829 32.7023 5.36766 6.54712 -3988.38 57616.3 322721 -121943 -363845 176965 
192 1 33.4692 35.1295 5.80406 5.89329 817109 275867 1.07259e+06 -55027.2 140529 -208311 
253 1 33.4347 33.3765 7.78528 5.79421 297906 178640 215252 64007.1 23650.3 -531853 
254 1 35.3044 35.0484 7.68086 5.48578 76237.5 -339648 348868 -347490 166845 -358358 
195 1 24.6683 22.8685 9.82709 9.5377 -391223 -297101 1.16703e+06 21274 -190642 139261 
257 1 22.788 23.2927 11.8854 25.8886 371887 238605 130583 -435622 -122752 217208 
196 1 22.8605 24.516 9.87452 15.5556 -22880 -74829.7 258502 -199716 193845 203870 
258 1 24.7534 24.5825 11.7338 1.20719 -1.25025e+06 -1.22493e+06 541752 -133002 18806.8 41521.2 
199 1 26.9041 22.0675 9.44905 15.0043 568661 550965 1.1808e+06 85522.2 339526 113411 
200 1 26.3264 24.6017 9.77021 4.68065 -734873 -91312.9 459860 -564184 71520.3 -209496 
262 1 28.0828 24.4088 11.6913 5.33835 235871 -184022 1.04644e+06 181575 55543.2 -458998 
261 1 26.1854 22.6268 11.8149 11.0339 1.00564e+06 417127 1.15989e+06 316070 -64840.4 -150545 
265 1 28.6336 22.0385 11.3407 15.0978 1.29076e+06 407057 1.63173e+06 64566.3 183397 -73570.2 
204 1 28.7209 23.8426 9.27925 5.50884 -240373 45303.7 635066 -93930.8 -2187.64 -97176.3 
203 1 30.4171 22.0533 9.38328 16.2593 1.32955e+06 284684 1.41846e+06 49758.8 -189547 -76165.4 
266 1 30.5357 23.7832 11.2173 5.48466 53192.3 -637632 205305 250677 105991 -55773.6 
208 1 32.2793 23.7417 9.35416 0.208739 190230 -215202 541887 229067 -25489.1 1965.12 
269 1 32.3741 22.1223 11.2856 14.7366 81181.9 -172915 387658 -240188 274240 100577 
2940 1 35.9139 23.6522 9.32783 0.362721 136167 23754.6 571466 -50914.9 50766.6 293296 
207 1 33.9539 21.9807 9.39887 16.335 778207 -22640 872276 348858 59296.2 -217767 
3009 1 35.7615 21.9232 11.2132 18.0741 1.12129e+06 470364 962033 222999 -20481.5 176401 
270 1 34.1006 23.7754 11.1112 0.299292 -224686 -1.02029e+06 -77761.5 -463486 67219.8 229736 
211 1 24.5064 26.2681 9.84884 0.29898 -235098 -452023 373488 -188985 181762 -3975.96 
212 1 22.6779 27.989 9.94399 10.085 765708 1.65047e+06 1.85471e+06 -83403.1 103656 -93003.5 
274 1 24.6664 27.972 11.7728 0.432369 153387 889700 428219 -204774 516173 -161616 
273 1 22.9209 26.119 11.8432 12.9312 -130392 433010 403907 452959 122880 -309080 
215 1 28.0302 26.3079 9.69423 4.80969 194775 419876 1.05194e+06 -351728 220998 -106152 
216 1 26.229 28.1003 9.80321 0.424189 81733.2 392218 464673 -338511 -157992 213236 
277 1 26.5053 26.256 11.8007 0.604228 -358342 -538682 787547 -250106 -24884.2 -226505 
278 1 28.0783 28.0784 11.7248 0.248222 -20208.6 56361.5 382185 -446224 499144 21734.3 
219 1 30.4623 25.5532 9.36098 6.035 43314.2 403144 419480 -272674 -226596 -20587.1 
220 1 29.8718 28.0178 9.96455 6.39361 -90469.2 277797 457384 -157756 -162179 -209613 
281 1 29.8284 26.1006 11.6984 5.56045 222900 109756 45253.9 -217227 610032 -109272 
282 1 31.6398 28.031 11.5809 5.97144 -72190.1 622594 251264 135094 -317275 122224 
224 1 32.282 27.3288 9.22185 6.04326 539225 130710 219492 48048.4 -213921 -20700.4 
285 1 32.2869 25.5982 11.0758 6.29893 -120591 -243879 -134314 -325179 95011.1 94444.3 
3027 1 35.8205 25.5932 11.1186 0.222194 10849.4 329019 408426 -538198 -115613 -27110.2 
2958 1 35.8336 27.3836 9.17663 0.361062 -175358 -201905 -78499.4 -52504.1 -337723 -250995 
223 1 34.0978 25.5674 9.32018 0.224618 181004 636346 319567 -116802 -155392 199990 
286 1 34.0031 27.3742 11.2159 5.98197 12616.4 25376.5 842329 76574.4 -134265 -218012 
227 1 24.3597 29.8804 9.88285 5.70706 763026 495465 868013 201707 -19966.3 114989 
228 1 21.9887 30.621 9.55194 15.7778 433900 1.27897e+06 1.20437e+06 -147238 -46778.7 -122152 
289 1 22.7025 29.8932 11.9119 11.0339 407274 681713 836993 -368871 -101789 85376.5 
290 1 24.4638 31.6143 11.8089 5.79935 38903.6 366119 671748 28528.4 -311734 238176 
243 1 23.8613 32.3014 9.42591 6.46965 70064 -112058 621535 -140488 12335.1 -144510 
305 1 22.1435 32.3133 11.3945 13.484 -44119.1 660382 892448 -86841.2 -61066.4 308993 
231 1 28.0476 29.7771 9.75025 0.39705 -259807 478139 204852 -107013 -437010 352389 
232 1 26.3229 31.6655 9.87687 5.57984 427605 576938 398367 -76301.9 -238891 63372.5 
293 1 26.3551 29.9018 11.7008 0.247256 408706 219451 611880 7105.93 81732.7 69500.4 
294 1 28.0447 31.7462 11.6796 0.298381 -268612 277772 693236 -30375.9 -196580 92576.6 
235 1 31.7097 29.7733 9.78636 6.19672 240028 214272 494541 -284450 41194.7 99362.6 
236 1 29.8464 31.613 9.79137 0.158147 665545 484796 531679 11685.5 -144381 76441 
297 1 29.8139 29.9119 11.5938 0.478141 212200 -48612.7 383583 -261924 34074.7 -153815 
298 1 31.6592 31.5573 11.6459 0.128351 -22539.8 -34362.4 633586 -509162 -212779 157946 
3045 1 35.9342 29.0905 10.9934 5.83161 45171.2 -27946.4 9484.64 289728 209327 -239658 
239 1 34.121 29.1659 9.2001 5.78176 -148097 392951 752204 249419 -127548 -39887 
2976 1 36.0117 30.837 9.09905 5.50643 -17072.7 -152749 -108834 212960 447077 -80105.1 
240 1 33.4856 31.5416 9.7214 5.972 450610 145098 814144 -421085 -177234 -195071 
302 1 35.3175 31.5466 11.4264 5.49039 174904 568075 499444 77729.9 -173760 160618 
301 1 33.5119 29.7614 11.6554 6.27845 219616 44261.8 389533 -55173 -95690.2 -224306 
1499 1 23.6803 35.9284 9.45606 0.432202 -413658 7777.66 431464 294343 102189 -150392 
244 1 22.0591 34.0671 9.54186 16.0438 374966 1.0544e+06 1.05987e+06 -174385 -69323.5 -325653 
306 1 23.8498 34.1217 11.3599 5.73561 16374.3 609602 666991 -431925 -59815.4 132996 
1569 1 21.9575 35.9084 11.4775 19.6354 800291 1.34151e+06 1.40246e+06 -56507.9 -62092.4 324020 
1573 1 25.5594 35.9201 11.2602 6.23923 674305 98998.8 455361 -274608 -192607 -1723.73 
247 1 28.0726 33.4263 9.68517 5.15092 588842 -841988 547530 53015.7 -130161 322192 
248 1 25.4687 34.1664 9.37455 5.45602 67403.7 146192 127074 -304881 -385147 22148.4 
1503 1 27.457 35.6875 9.30783 6.65066 -259975 -981471 56475.5 -184605 -113476 -9657.72 
309 1 26.3029 33.4794 11.7488 5.59156 572828 332534 1.07096e+06 315985 -127214 9614.01 
310 1 28.1237 35.2423 11.6983 6.06121 479770 434721 1.00803e+06 -511706 -246099 211978 
251 1 31.6787 33.4109 9.67179 0.117905 69224.1 547278 872153 -218784 114992 -63566.1 
252 1 29.8918 35.1606 9.70473 5.17065 -228988 -258767 554541 -83870.7 -189154 10527.1 
314 1 31.7566 35.1532 11.5791 0.171983 566430 296515 1.07598e+06 -6945.8 81563.4 -84859.8 
313 1 29.9096 33.3975 11.6135 0.0877242 668353 562183 1.09533e+06 -151513 134702 -90193.8 
317 1 33.4023 33.2476 11.6443 0.822716 383728 198239 778662 -165222 84508.3 63527.2 
318 1 35.3257 34.9718 11.4871 0.464172 790220 562120 355692 9102.49 45532.9 108664 
255 1 35.2647 33.2635 9.62318 6.00254 479745 -57506.6 450519 -230436 70108.4 59768 
256 1 33.4754 35.0469 9.54298 0.41121 -124619 -340147 339980 -480609 -149301 -185123 
321 1 23.0894 22.9077 15.7565 30.6011 544589 907179 830834 -97367.5 266443 55638.8 
259 1 24.4853 22.9415 13.7783 15.1248 -127716 -173424 827679 25834.8 399964 -289000 
322 1 24.837 24.6249 15.5898 0.893746 -452279 -766842 -353507 -278283 -129224 190603 
260 1 22.8563 24.6509 13.8672 14.8318 -24218.6 -471928 417022 265657 -116865 -593365 
326 1 28.1209 24.6238 15.5883 0.768296 -165753 -392985 -30498.2 325237 243027 145508 
325 1 26.3715 22.6904 15.7709 16.2324 1.33492e+06 271455 1.02433e+06 196762 -16269.3 -80450.9 
263 1 28.0454 22.5507 13.7992 11.0889 1.18096e+06 585679 1.74345e+06 -47577.6 -4769.95 20975.3 
264 1 26.417 24.3982 13.7354 0.527021 -372337 -86710.5 524587 18960.5 155284 12549.7 
330 1 31.7124 24.5193 15.5215 5.78897 -551775 156496 532965 242927 290222 28186.4 
267 1 30.6469 22.0651 13.1278 14.1062 821329 -123806 508709 102266 -348644 107073 
268 1 29.8271 24.2796 13.6474 4.91716 220121 -509598 518890 420343 268052 200130 
329 1 29.8541 22.7989 15.6234 11.1385 509900 154029 184254 -36401.3 208725 250895 
272 1 32.305 23.9961 13.0227 6.08962 -479810 -1.43637e+06 294358 -103899 -155727 -312140 
333 1 32.2223 22.0058 14.8391 16.6347 907061 1.05282e+06 1.00541e+06 -87335 -443447 76260 
3081 1 35.9345 22.1565 14.8809 15.6794 781736 261599 548976 -238026 223227 -28239.7 
3012 1 35.992 23.8426 13.0251 0.505271 -77038.7 -807480 666784 -32897.7 -15253.8 161936 
271 1 34.0884 22.2293 13.0535 14.4831 630153 150925 284701 -9103.11 -165385 73100.1 
334 1 34.0183 23.9049 14.9296 5.96786 212811 -682126 247204 162786 63747.7 -11186.5 
276 1 22.9094 27.9292 13.4771 13.3067 249150 769967 979478 6658.39 409640 -256073 
275 1 24.7452 26.2246 13.7422 0.374186 -331144 -168194 133475 -11055.2 -13107.5 225039 
338 1 24.6722 28.0158 15.5296 0.297198 -871726 -605174 784202 374361 137417 268961 
337 1 22.9451 26.3381 15.6355 17.1187 104165 829970 773483 -402973 -55645.2 -125600 
279 1 28.265 26.1594 13.5775 0.7029 -28059.5 235272 139629 -33566.2 -21003.5 229495 
280 1 26.4664 28.0826 13.6487 0.157023 317609 228739 476945 -473325 309047 -60917.7 
342 1 28.2661 28.1221 15.612 0.436509 -240755 313987 313321 -271743 -183865 104915 
341 1 26.495 26.408 15.6336 0.376314 -782371 -687061 515082 166329 -226302 174273 
283 1 31.6459 26.1971 13.5161 5.24526 718928 -303065 898362 525083 210398 -284509 
284 1 29.9018 28.0325 13.5931 0.118214 655495 642794 1.13413e+06 -86701.3 -13258 -53855.6 