ITEM: TIMESTEP
17400000
ITEM: NUMBER OF ATOMS
5780
ITEM: BOX BOUNDS pp pp pp
3.6037909072040595e+00 6.8696209092811458e+01
3.6037909072040595e+00 6.8696209092811458e+01
-6.0913772927119112e+00 7.8391377292727441e+01
ITEM: ATOMS id type x y z c_csym c_2[1] c_2[2] c_2[3] c_2[4] c_2[5] c_2[6] 
69 1 25.1183 21.56 -4.28145 11.9331 1.24546e+06 -94718.6 672266 -96961.9 -29538.9 46185.3 
81 1 21.5122 25.0528 -4.33026 13.5993 -528757 -479345 262364 165048 114433 -259867 
65 1 21.7509 21.7159 -4.36649 37.0783 -319226 -842704 -771739 -594013 490361 -218551 
66 1 23.2872 23.4145 -4.29809 5.56003 -1.25769e+06 -1.7248e+06 156229 -753896 93699.7 8346.93 
73 1 27.5994 21.9052 -3.64854 11.7315 610893 242810 918419 -510083 -88540.7 181646 
70 1 25.7539 23.8093 -3.61801 5.64037 6872.65 -305519 -83590 -542229 -47194.6 25609.1 
12 1 27.4846 23.6725 -5.49525 5.458 444333 215800 693725 -285614 4297.87 -26676.9 
77 1 30.9789 21.8627 -3.62739 17.1876 1.04732e+06 139880 967997 -235894 -135476 180965 
11 1 29.3262 21.8522 -5.62012 11.0356 709048 57857.8 1.07766e+06 -372260 275437 296832 
74 1 29.2268 23.6729 -3.61535 0.280416 -176744 -107690 367651 -524257 -9243.61 330251 
16 1 30.8818 23.6791 -5.4643 0.337139 -635865 -426239 473382 -57025.1 -170435 117630 
78 1 32.5371 23.7184 -3.59817 0.305997 65477.1 -623035 386869 -183875 -148417 -66011.7 
15 1 32.5483 21.9331 -5.59295 15.7982 648985 130066 916893 136333 -159381 22525.3 
2793 1 34.236 21.9809 -3.66174 14.5328 889143 145156 1.07494e+06 178440 -252292 199382 
2724 1 34.3461 23.6243 -5.54916 0.222181 -119633 -688621 669708 -123604 -118713 177139 
2794 1 36.1204 23.6323 -3.69037 0.227175 87256.3 -579185 -85697.7 -111950 180265 211790 
20 1 21.498 26.692 -6.08529 13.9086 -300668 494829 655125 455956 198096 241891 
82 1 21.9836 27.2373 -3.52457 10.1736 131517 -385085 657113 57308.1 11336.4 -92405.8 
24 1 23.7711 27.4945 -5.42321 5.54834 -83518.7 -153748 216827 -80067.4 -240261 9492.68 
85 1 23.8483 25.6511 -3.65181 5.92165 -414012 -1.00833e+06 9703.19 -265914 99824.1 -3955.2 
89 1 27.4625 25.5425 -3.69116 0.418974 143420 104728 442178 -509386 -85673.8 368699 
23 1 25.6002 25.6046 -5.45528 6.0569 450903 267192 412438 -267547 72978.5 -126825 
86 1 25.6213 27.3609 -3.63375 0.248523 328897 105502 344667 -421695 90132.7 -38914.9 
28 1 27.467 27.3858 -5.39569 0.586919 -43737.9 153398 -33592.6 6995.72 -155243 -44985.7 
93 1 30.8139 25.6285 -3.50556 0.863921 -320469 -421609 313943 7234.6 32667.6 122882 
90 1 29.153 27.376 -3.56939 0.174113 -144087 -199787 327083 399943 -359703 409539 
27 1 29.1868 25.5101 -5.61889 0.569352 -53732.5 -266998 359222 -322183 181144 134237 
32 1 30.8887 27.2333 -5.47067 0.394016 -255170 260832 64062.1 -724934 37056.6 168245 
2811 1 34.3569 25.4358 -3.61619 0.131373 -737654 12092.7 -386871 45080.5 169578 109899 
31 1 32.7039 25.3778 -5.53708 0.757922 -25100.5 -93609.4 399774 -318.03 -14006.4 3865.5 
94 1 32.6225 27.2478 -3.63905 0.289835 -377213 22759.8 147138 -175247 1916.68 378818 
2742 1 34.3502 27.2297 -5.42322 0.152198 -416572 -281305 388160 20561.9 422501 361864 
2812 1 36.0906 27.2498 -3.50396 0.234058 -188966 -194953 1968.6 -132804 -47651.6 629196 
2741 1 35.9992 25.4306 -5.47035 0.350656 69694.7 -204408 474305 170185 419001 250894 
36 1 21.4242 31.7022 -4.77527 26.9104 314451 1.10504e+06 749898 -372331 -381036 128085 
97 1 21.4745 29.7668 -3.13742 27.129 -145409 1.20069e+06 789218 281102 273132 -334586 
101 1 23.7168 29.139 -3.58584 5.92232 -281452 604311 247740 17269.8 125133 -545606 
35 1 21.9893 29.1853 -5.46866 9.3729 150805 822389 521275 254265 8767.52 102551 
40 1 23.9151 30.9022 -5.50503 6.01143 188632 386564 710366 -200928 -334851 -51131.6 
98 1 23.144 31.7332 -3.08375 5.61249 -282000 -7165.15 93093.4 -30532.6 -310846 172760 
105 1 27.3749 29.1564 -3.6584 0.289909 -46747.3 14747.7 272711 136025 -198055 -265945 
39 1 25.6241 29.1368 -5.5114 0.187777 -22709.7 -529602 205931 -12075.1 -382230 -122369 
102 1 25.5618 30.8683 -3.57992 5.00447 282209 630065 -133447 100087 -115952 35429.4 
44 1 27.3268 31.0126 -5.43402 0.376108 -480131 -276951 427045 227773 14646.1 114919 
43 1 29.1933 29.2232 -5.46242 0.273303 159240 361767 193597 -408087 350108 45540.1 
109 1 30.9873 29.2055 -3.53826 0.56205 446792 156703 259539 38715.1 188761 95950.9 
106 1 29.1711 30.9817 -3.61038 0.246077 86229.2 47573.2 437796 -241140 -51610.9 -313363 
48 1 31.0091 30.9193 -5.34294 0.777784 -24992.3 -176008 -310270 -22729.4 -125128 91444.1 
110 1 32.7325 30.9883 -3.64432 0.572521 -790411 24355.6 42263.7 -581977 -166516 -40333.1 
2829 1 34.4095 29.1004 -3.51443 0.203144 -348618 132253 72492.2 17880.7 269475 34666.8 
47 1 32.58 29.0295 -5.4308 0.341921 -219066 -322006 60005.5 151519 310513 -41664.4 
2760 1 34.3477 30.884 -5.45747 0.410018 287216 440379 -183467 146840 495241 -316856 
1281 1 22.4265 35.6957 -4.49489 21.9952 1.04363e+06 631498 887040 453583 299624 205258 
51 1 23.1857 33.4038 -4.89483 5.45024 -472219 -440527 -597248 -129741 -201408 308434 
117 1 24.9033 33.4459 -2.99014 0.274323 -613395 -177648 -319277 -353549 -108208 282312 
56 1 24.9618 35.1678 -4.84618 0.178842 173011 773252 609776 -359226 -87986.6 107266 
52 1 22.5161 34.0476 -2.6582 20.6581 112135 124501 488409 307894 366868 -207011 
55 1 25.6238 32.6451 -5.41682 5.53916 -236351 -35166 740181 235670 -171649 164469 
121 1 27.3833 32.8265 -3.60938 5.73506 620780 253117 166947 258998 -27068.4 -248936 
60 1 27.3348 34.6109 -5.4572 6.22896 -60769 -189008 342245 197472 166234 93718.9 
118 1 26.7323 35.1374 -3.00491 0.164471 525223 -239943 373444 -2279.81 -99651.7 4334.61 
125 1 30.8449 32.7895 -3.63817 0.482026 217784 -39738.3 706335 -173238 -140287 -82414.4 
59 1 29.0474 32.7839 -5.54317 0.635333 348122 565147 434943 -129304 24168.7 53909.3 
122 1 29.2281 34.6457 -3.46954 5.77214 136459 58749.6 751340 290724 20284.1 33237.1 
64 1 30.9863 34.5981 -5.39041 0.129743 236680 383057 293398 416147 97328.7 187317 
2847 1 34.492 32.6097 -3.67215 0.53019 -224420 -253319 391748 -669586 -325483 32544.1 
63 1 32.7887 32.8371 -5.45301 0.619769 -466664 -476535 -242370 4506.12 -455974 72566.3 
126 1 32.7257 34.4778 -3.56549 0.134823 466368 240543 175973 -101283 -194054 -270.506 
2778 1 34.555 34.48 -5.44068 0.161239 -244970 -266144 812504 -829597 81594.1 408571 
67 1 23.4308 21.4088 -2.48223 25.305 158745 1.03995e+06 859170 241237 92416.1 -62384.3 
68 1 21.6271 23.0815 -2.46469 24.8822 590326 186797 633345 181798 400953 -684736 
133 1 23.9725 21.9337 -0.0963555 13.9594 802328 941314 1.16276e+06 179626 144996 44571.6 
130 1 22.2185 23.6754 0.0794455 10.2223 384792 467884 1.38992e+06 -155589 -161424 202953 
72 1 24.0273 23.9902 -1.82389 6.00504 15259.9 619164 312021 -246232 139643 181959 
71 1 25.7855 21.97 -1.88319 10.3028 535672 217228 791372 -602418 115693 230584 
137 1 27.3285 22.054 0.251108 16.5948 482155 203410 393372 123360 692511 -147117 
134 1 25.6806 23.9165 0.137801 0.371727 121606 47641.5 340442 17867.1 -217156 435507 
76 1 27.381 23.7709 -1.74712 0.233715 -135454 -255970 637040 92625.2 -142463 78249.2 
138 1 29.1223 23.8563 0.235668 0.224597 -496355 -417944 754274 182709 64477.1 -131271 
141 1 30.7163 22.0102 0.352255 14.7643 1.04924e+06 -28139.1 1.34297e+06 -43875.5 -253223 -258044 
75 1 29.1099 22.0148 -1.7147 16.6401 896265 -149788 986237 -201866 -393873 221380 
80 1 30.7837 23.7575 -1.66305 0.370562 122584 99402.6 526737 -476970 -30300 -51273.2 
142 1 32.5811 23.5966 0.258612 0.422086 130589 -37292.1 651467 -367690 -200579 -10961.6 
79 1 32.5632 21.915 -1.6813 16.4477 1.02267e+06 631029 833091 223.415 -679669 -92430.7 
2865 1 34.3112 21.7844 -0.0026887 17.4282 858960 207483 873483 5143.31 -264696 174069 
2796 1 34.4326 23.6746 -1.66142 0.516041 -210527 -859380 395117 142042 -103824 7459.26 
2866 1 36.106 23.5406 0.173978 0.162283 -860645 -839757 -163072 483897 -99873 -278236 
2795 1 36.0759 21.9375 -1.8707 15.4262 50950.2 -448857 654998 -70073 86072.6 130221 
84 1 21.4679 27.9281 -1.1654 26.366 513555 1.14324e+06 1.07656e+06 9816.31 112558 -299438 
145 1 21.4984 26.124 0.649183 29.2923 -108912 635425 702522 52582.9 256853 173908 
83 1 22.0452 25.4879 -1.77738 9.2608 -28451.5 217557 677946 53525.4 -59791.3 430901 
149 1 23.7678 25.603 0.1313 5.70765 -443211 -635900 475604 27039.9 82420.2 66095.3 
88 1 23.8319 27.2713 -1.67132 4.98088 -107998 -275.111 144780 -58594.2 -31558.7 58971.4 
146 1 23.2426 27.9506 0.713789 5.72984 317834 -393749 624316 146043 332059 -375593 
153 1 27.4302 25.5949 0.237563 0.230764 -803203 -651880 45860.5 242563 -290404 238692 
87 1 25.7573 25.665 -1.72838 0.511634 -379997 -984613 238729 -591366 -127620 -129799 
150 1 25.6702 27.275 0.162822 5.61001 -427245 -253136 -481032 141748 419434 14401 
92 1 27.3566 27.4177 -1.56133 0.611661 -1.58199e+06 -1.31392e+06 340997 -314182 321981 41374.2 
157 1 30.8376 25.552 0.157878 0.190992 186833 43980.1 779572 -544779 -149993 98693 
91 1 29.0986 25.7222 -1.71858 0.68194 -497445 -151737 -22356.7 -187200 152963 153880 
154 1 29.1705 27.4519 0.218794 0.277123 -321062 -116942 124731 17835.3 206958 8703.6 
96 1 30.8968 27.3195 -1.65041 0.150975 219505 101216 79257.8 -562742 -41479.7 -260046 
158 1 32.6375 27.2743 0.292129 0.317275 -309939 -98622 -1377.85 -285219 -213475 -2543.5 
95 1 32.6545 25.4489 -1.77972 0.424476 39498.3 278222 614481 -225333 79665.4 -143245 
2883 1 34.4184 25.3049 0.263266 0.512162 244064 225208 271276 82640.7 -129360 -278205 
2814 1 34.3367 27.2333 -1.71557 0.259341 -34773.8 -13822.2 393950 23255.2 -14714.6 -213770 
2813 1 36.1373 25.365 -1.83915 0.598552 -452416 -213504 309628 -412557 36928.3 165655 
2884 1 36.1289 27.2484 0.160862 0.30798 -605327 -156560 784936 405349 30196.5 38229.5 
2901 1 34.5136 28.9145 0.23109 0.876226 -683965 -273673 158001 393854 140497 -20195.8 
99 1 23.2315 29.7434 -1.21078 5.7959 295241 908713 376318 174729 500483 -308983 
104 1 24.9685 31.656 -1.27916 0.603343 -382014 350109 644135 -171594 123924 -54572.5 
113 1 22.5254 32.1782 -0.715878 23.868 893096 1.44106e+06 1.42874e+06 100191 360199 -266474 
165 1 25.0351 29.7215 0.787493 0.289077 -506310 175622 664355 208977 370911 -219849 
103 1 25.5894 29.0347 -1.67026 5.49327 -40481.1 138825 748233 246871 -28283.1 76860.1 
169 1 27.3848 29.1708 0.2518 5.80282 -758405 -261356 38124.5 -12370 259656 -106857 
108 1 27.2616 30.9646 -1.7108 5.64919 -532032 -45211 799845 195967 34280.4 -247622 
166 1 26.7494 31.6261 0.702998 0.212094 -146949 61084.1 503728 -386133 245510 -149134 
173 1 30.9736 29.1191 0.183827 0.2173 -45176.8 -261316 270835 114421 -141110 -164093 
170 1 29.1808 30.8407 0.18106 5.46804 -203973 -159616 188645 -445645 321331 5087.69 
107 1 28.9686 29.1717 -1.67266 0.878425 32448.5 -149595 -114121 -522107 142655 -140092 
112 1 30.8571 30.8561 -1.67811 0.406397 299072 129621 391715 -104353 95033.9 -311471 
174 1 32.8334 30.9159 0.124336 0.943381 166715 372606 169608 -425839 464314 -90718.2 
111 1 32.7762 29.1018 -1.65701 0.330583 -42414.8 245544 530196 131343 266006 -195868 
2832 1 34.4358 30.9572 -1.68628 0.484041 -435821 199687 170389 -179993 532281 -118516 
2831 1 36.0943 29.134 -1.65677 0.667239 -309427 -225215 -394083 -161985 148359 382870 
1283 1 24.2049 35.8575 -2.48672 5.41916 328076 347399 1.01295e+06 -251991 53863.2 220326 
114 1 24.2232 34.065 -0.697024 5.64145 172762 508675 504263 -63226.5 152996 -72844 
1357 1 25.9916 35.8174 -0.595077 0.127077 286337 134414 317095 -583254 25362.2 471638 
119 1 26.6802 33.364 -1.2151 0.147335 -328950 -428407 -80108 -439739 -126963 32139 
124 1 28.4719 35.1147 -1.05944 0.27462 -438106 -573747 -414.853 -318065 -187400 105558 
185 1 28.4135 33.369 0.722145 0.224835 -131044 -194983 -173361 -617660 148358 213768 
189 1 30.8848 32.6166 0.2086 5.16972 305169 179206 104492 -322254 69300.9 -202353 
123 1 29.0814 32.6357 -1.67479 5.48776 287160 420783 625681 50335.4 -86340.9 -165128 
128 1 30.8985 34.5496 -1.64358 5.18488 -364858 -768327 -128712 512204 -63962.9 -371881 
186 1 30.2315 35.0642 0.654451 0.418061 -175988 -138593 -312434 -150863 36741.8 66067 
127 1 32.519 32.7273 -1.71892 0.840084 338907 150778 693895 314245 -44467.6 229226 
2919 1 34.4337 32.7423 0.257245 0.290768 140023 -304549 726368 -495338 48855.2 -201785 
190 1 32.6267 34.4775 0.264104 5.84815 18413 151000 704487 148899 -102567 110371 
2850 1 34.4766 34.4531 -1.64723 0.118972 668730 861590 774565 76567.5 145634 341971 
129 1 21.5645 24.5236 2.45391 28.1609 -629107 110228 431581 -455851 -131230 365542 
193 1 21.6154 22.7173 4.10564 46.8968 584484 63107.7 879307 -65503.2 -81569.7 38266.4 
131 1 22.5054 21.9373 1.93564 41.598 478283 275584 550907 -546978 -136832 137523 
197 1 24.0381 22.0249 3.88057 15.9879 849218 371845 940542 -451306 -193541 74484 
136 1 23.8376 23.873 2.02766 5.90077 -559526 -653727 656669 -476829 -60800.6 -127699 
194 1 23.199 24.4776 4.40379 5.31365 -325521 -492633 -525683 -339772 350925 244145 
135 1 25.6538 22.0477 1.84963 14.7662 418541 -80603.3 224607 -527658 890568 465070 
201 1 27.0733 22.0785 4.0206 13.9375 498595 -313917 962752 730440 45064.9 91298.7 
140 1 27.2942 23.8285 2.06998 0.218758 -217783 -785352 87885.2 61198.7 359.436 -29569.2 
198 1 25.6151 23.8702 3.95217 5.48105 -665736 -1.48432e+06 683455 423524 -102762 72996.4 
139 1 28.9053 22.0179 2.25519 14.2297 987977 187181 1.11394e+06 240514 -24989.9 -265568 
202 1 29.0251 23.7188 4.07871 0.573885 284656 -726735 208722 -42928.1 216984 188789 
205 1 30.8788 22.0046 3.96418 15.2358 465520 -329698 1.23758e+06 -734598 -205475 264459 
144 1 30.7848 23.7492 2.14684 0.166305 299702 -37945 -281497 -122620 -548060 -225149 
206 1 32.4799 23.662 3.8927 0.72156 -161211 -787749 606945 -821146 -382257 360567 
143 1 32.6373 21.8368 2.04444 16.6535 1.00355e+06 99394.2 1.28245e+06 -661142 -58500.2 186430 
2937 1 34.3196 21.8011 4.10232 16.4873 1.27394e+06 475522 1.01511e+06 -202823 -213705 -280416 
2868 1 34.3555 23.4682 2.00549 0.697318 -168312 -257951 694523 -597092 -176949 384614 
2867 1 36.086 21.6997 1.9706 19.2254 1.0822e+06 309957 1.51821e+06 -104527 -120683 192510 
2938 1 35.999 23.6827 3.99659 0.656609 -407039 -3558.21 -32234 136701 420349 208965 
2885 1 36.1126 25.2742 2.06567 0.340466 -208125 -330523 235440 84491.5 -538347 15573.7 
147 1 23.1777 26.2196 2.70913 5.63793 -306556 -689104 -202376 -182956 207928 5557.72 
152 1 25.1538 28.0282 2.62395 0.606475 -81711.1 -207492 486262 87659 133959 31334.7 
161 1 22.7054 28.6454 3.07483 19.5753 532182 826363 1.1844e+06 138710 188161 -29764.1 
151 1 25.5772 25.6499 2.11496 6.20936 253342 -434794 110835 18952.9 226217 -12285.6 
217 1 27.4222 25.6258 3.96941 5.79259 -336147 -460328 242394 166121 183695 12153.1 
156 1 27.4382 27.4055 2.07579 5.89927 -911218 -496800 560694 307966 262951 90896.4 
218 1 29.2039 27.4532 4.04336 5.2296 -514517 -1.19485e+06 201129 -361470 186373 -139292 
155 1 29.0751 25.6609 2.1236 0.226365 -475737 116431 52999.7 345121 -216552 -72461.4 
221 1 30.7592 25.4975 3.95489 0.499432 220945 94634 411838 56708.5 42804.2 -102296 
160 1 30.9714 27.3695 2.18039 0.391439 -248005 26164.7 56947 -409935 129245 -648.46 
222 1 32.5252 27.3312 4.09521 0.570212 -698866 -406065 302923 504515 -461098 -65991.9 
159 1 32.6445 25.493 2.0629 0.318473 110032 112591 497820 -492517 46360.1 339483 
2955 1 34.2097 25.4769 4.1027 1.18954 67156.8 380537 200846 65531.1 316986 -29527.9 
2886 1 34.3806 27.1507 2.08551 0.205002 -57617.9 -199029 293050 -410531 -487499 36612.8 
2956 1 36.1333 27.1516 3.91236 0.296886 -56168.6 401154 397309 109485 164610 253476 
100 1 22.6917 30.2955 1.11716 20.6791 -115428 397958 805707 208404 386317 -290804 
115 1 24.3659 32.0989 1.29688 5.75374 -61758.4 225568 577716 -147605 229089 262704 
162 1 24.3843 30.5051 3.10963 5.22133 -444252 -508804 -686373 -205983 597810 302510 
181 1 26.1103 32.1992 3.10798 0.141808 -404440 -228603 -47474.8 -441692 62776.3 -453881 
167 1 26.7969 29.8482 2.73224 0.443539 -437348 -292718 782594 -91945.3 196942 -355606 
172 1 28.5422 31.6204 2.5768 0.507263 179924 -517235 682045 -163777 13719.4 -231910 
237 1 30.9168 29.0447 4.11314 5.00435 -1.02276e+06 -1.28553e+06 857196 -42285.4 -447203 -294503 
171 1 29.1176 29.2062 2.12837 6.51912 81144.4 28390.4 760755 -202896 -9828.14 117319 
176 1 31.0901 30.8218 2.03075 5.78178 150983 -342893 896934 -82671.4 -51287.6 -127457 
238 1 32.722 30.7814 4.04032 5.05401 37084.4 407149 244866 20263.7 -61522.1 -56799.2 
2973 1 34.3454 28.9816 3.93268 0.373529 -200820 -76906.8 530855 54103.2 164097 183504 
175 1 32.6767 29.0424 2.03216 0.349385 -744981 -848283 260890 -27526.2 -398477 -320658 
2904 1 34.4002 30.842 2.16043 0.135646 239842 444324 547615 -175207 170607 156766 
2903 1 36.1186 29.019 2.17555 0.247206 -174856 -35328.6 62838.2 -17892 44268.1 88609.8 
177 1 23.5907 32.8506 3.59226 11.5291 445912 4392.21 310833 -25398.3 -18000.4 -171779 
116 1 23.6114 34.6111 1.82154 11.2009 -50976.9 752874 916118 -300580 -165752 252958 
178 1 25.3579 34.67 3.59003 5.81139 -923211 -371880 -928929 -206791 299821 129165 
1359 1 27.7837 35.8129 1.34109 0.444297 313358 -250176 -522318 -210680 238066 46186.8 
120 1 25.9885 34.0556 1.14124 0.487707 104895 -158204 462870 -43542.5 104718 -13079.1 
182 1 27.8712 33.9259 3.05269 0.216377 596151 -344468 244507 -43148.4 394168 -257868 
1433 1 29.7266 35.7121 3.12201 0.378375 -325309 437104 457034 93595.3 66636.1 -207537 
187 1 30.3436 33.3051 2.56672 0.59544 -731765 304664 1.01624e+06 -116126 197017 -297624 
192 1 32.0418 35.1231 2.73545 0.394267 -157714 -152888 592655 88346.3 617707 -593352 
191 1 32.5979 32.7066 2.13155 6.38361 -867879 -103072 929570 -389518 97699.7 -60995.8 
2991 1 34.422 32.6585 4.12148 6.34978 636885 192877 1.41956e+06 -561332 -12230.1 98192.6 
2922 1 34.4397 34.3583 2.1599 6.2434 284686 -129752 778909 -15167 110011 20533.5 
195 1 23.0516 22.6992 6.21346 31.7641 680393 358.568 1.3794e+06 367028 310403 41152.2 
200 1 24.9659 24.44 6.49655 0.679144 -606251 -235447 758645 203923 483020 -83824.6 
132 1 22.5697 25.0037 6.67 31.3815 553983 381095 658871 274747 523414 -208978 
199 1 25.4561 22.1345 5.98455 17.0582 564960 -81296.2 880697 32034.3 -12902.2 -166055 
204 1 27.2515 23.9601 5.88357 5.4405 -649910 122764 48472.7 109244 128574 8901.5 
265 1 27.1968 22.1597 7.82465 13.8128 998008 -132834 909001 -359252 -132600 -96731 
203 1 28.919 22.0637 5.79988 15.8219 1.25289e+06 -15479.9 945155 -60907.6 -271655 492028 
266 1 28.942 23.8704 7.72764 5.6544 -1.03858e+06 -622057 311191 -301004 314850 -10112.1 
208 1 30.8054 23.7315 6.00103 0.709408 -218265 -356730 410898 162859 -112972 52837.4 
269 1 30.5736 21.9985 7.74805 15.8358 1.12058e+06 290881 758346 137253 382714 267129 
270 1 32.504 23.7417 7.8379 0.418988 917445 595666 559044 -214315 -138715 -298154 
207 1 32.5571 22.0981 5.85362 13.3485 167673 -153426 713228 -18354.5 -152788 -44648.5 
2939 1 35.973 21.7551 5.9254 17.6504 568926 -71943.5 996111 371367 -471162 -116778 
2940 1 34.4515 23.5788 5.86267 1.16924 -649247 -689931 -47183.1 -133085 -80269.9 -175195 
3009 1 34.1857 21.74 7.87331 17.5239 1.35402e+06 910447 1.54534e+06 -108069 -268061 -37542.4 
3010 1 35.9376 23.5923 7.75254 0.549826 -148028 -362314 187467 461035 -458142 14451 
213 1 25.0255 26.2063 4.47017 0.357581 -661360 -406289 426398 -401405 -69635.5 -364085 
148 1 22.6509 26.8726 4.95606 20.0375 426157 954601 405251 293519 441168 -163049 
209 1 24.2719 26.9074 6.99866 5.80113 -161567 777128 1.28705e+06 -202947 198413 189875 
163 1 24.4545 28.6899 5.034 4.93438 -843279 -19939 583018 -97013 30796.5 -95224.8 
214 1 26.7378 27.8773 4.63641 0.863644 -823849 -918893 -20295.7 -403208 52896.3 52033.7 
215 1 26.6098 26.3632 6.49324 0.659189 -283474 -972872 -246226 -4866.05 -94287 216317 
220 1 28.526 28.0141 6.50634 0.369636 55952.2 -671910 337112 -111683 117979 496553 
210 1 26.0114 28.6401 6.95124 2.45062 432803 -1.31893e+06 887894 -369242 -269844 -177823 
219 1 29.1064 25.6759 5.86074 5.30537 -383199 -459539 -18417.1 -673451 -304655 780.043 
224 1 30.8424 27.275 6.02586 5.76394 -766682 -34312.5 120989 -730834 -91859.4 359306 
285 1 30.6518 25.5703 7.8089 5.46054 -138131 -401219 285136 -452390 -125235 -104067 
223 1 32.6411 25.4325 5.91256 0.466422 24318.2 525489 288158 -381945 539102 176652 
286 1 32.5742 27.1886 7.88204 5.61678 -179058 712679 793325 96522.5 -157183 14671.2 
2958 1 34.325 27.2474 5.8933 0.218315 369289 134593 848941 -145908 -165909 -101975 
3027 1 34.3783 25.4211 7.79139 0.133787 -187514 157109 828035 276724 -166839 -66012.4 
225 1 23.2879 29.3375 7.17122 19.452 738896 1.19132e+06 49273.5 95775 -62814.2 561115 
164 1 23.5771 31.0139 5.29276 14.6432 379099 504617 -199959 316433 232479 -123404 
226 1 25.215 30.9523 7.22333 6.57822 -46250.3 261795 -1.15795e+06 726479 -86125.9 -11647.9 
233 1 28.4631 29.6615 4.71409 0.801305 -579514 -1.21857e+06 927684 -320471 79304.7 62513 
168 1 26.1107 30.3944 5.10341 0.361609 -582169 -462056 -388059 -479671 669954 -235381 
183 1 27.9035 32.1061 5.00184 0.556208 -575429 100760 679656 7810.34 469521 -435174 
229 1 27.7408 30.3529 7.23089 4.79022 467021 432755 1.5629e+06 -403999 -269261 74270.3 
234 1 30.1556 31.3301 4.60565 1.16612 -436071 -25429.1 1.35095e+06 -196462 -142858 25838.3 
235 1 30.2381 29.8418 6.67749 0.888204 -101565 -146004 658573 -737834 263224 101248 
240 1 31.9549 31.4333 6.40695 1.41935 -409391 -213010 1.19631e+06 -674050 225688 88343.1 
230 1 29.5286 32.1775 7.17825 2.12004 855679 44726.8 2.03099e+06 -85392.1 4480.16 86735.4 
239 1 32.6069 29.0402 5.97472 5.24756 140953 -323738 802330 -172584 -156559 -215032 
2976 1 34.312 30.8221 5.9681 6.24039 -90945.8 500141 1.26566e+06 -411318 -13748.3 -24683.4 
3045 1 34.4112 28.99 7.97978 5.41413 231481 257530 1.12281e+06 150877 74380.4 50448.1 
241 1 23.5314 32.7911 7.04404 15.359 607687 1.20281e+06 1.58195e+06 200832 153437 -81081 
180 1 23.6776 34.5968 5.24157 14.9861 -413527 135357 -36112.3 -44109.4 437502 196350 
242 1 25.2603 34.6799 7.22475 0.912322 -413147 -223058 -43972.6 197187 27185.4 -175753 
179 1 25.4518 32.8192 5.35801 5.72282 -448584 145347 -297657 220633 -121743 -98364.9 
245 1 27.0725 32.8624 7.21783 8.19136 296561 429277 -1.03278e+06 362723 -114922 -54631.2 
184 1 27.2248 34.5973 5.40754 5.28434 -412837 -695571 -94962.9 -237866 -63202.3 80966.4 
246 1 28.9377 34.6251 7.3354 7.15138 -498623 -516086 -1.64855e+06 618755 94415.1 -91122.3 
253 1 31.8873 33.2535 4.67145 0.599184 427848 727578 1.48814e+06 169288 162933 122198 
1435 1 31.4035 35.7236 4.98858 0.647918 415750 -100819 -476049 408996 497681 -775224 
188 1 29.6183 33.8926 5.14297 0.450193 -473623 506517 855459 156890 601078 -391611 
249 1 31.3523 33.9199 7.26671 4.54 29991.4 334131 1.84119e+06 -195475 9875.48 -187125 
254 1 33.8451 35.0201 4.81069 0.585583 342564 518265 1.60106e+06 235310 49666 -259618 
250 1 33.197 35.5833 7.3089 4.64686 557371 363621 1.71168e+06 -322410 144211 -140849 
255 1 33.7015 33.1565 6.82118 1.21692 455108 55271.9 937451 -18802.4 -149759 -136672 
2994 1 35.618 34.8891 6.61406 0.203343 47067.9 339753 147267 66667.4 -396790 -157070 
261 1 24.6999 22.8454 8.41763 20.505 1.25236e+06 -13062.4 1.37394e+06 -27959.2 466467 190821 
257 1 24.3598 23.7921 10.773 27.5432 -145940 278646 764002 -517144 -28554.7 496063 
196 1 24.249 25.1882 8.85905 10.8496 604819 -89180.6 582107 -153997 423139 465149 
262 1 26.69 24.4912 8.37025 0.35351 -552416 -653067 43108.1 94418.5 -66993.7 -275964 
263 1 26.6209 22.7459 10.2234 17.2612 497167 -372442 886211 -194064 100098 -8623.18 
268 1 28.4827 24.3777 10.1641 0.506322 -822578 323800 932843 115349 263227 -365903 
258 1 26.2901 25.0845 10.8195 5.81988 -1.48335e+06 -712868 852239 -586252 45285.1 -213672 
267 1 29.0034 22.049 9.55938 13.0196 492591 -52250.6 526927 -123210 487630 -113361 
272 1 30.8505 23.745 9.75274 5.60429 -180188 94204.2 903788 -203558 178332 -86729 
271 1 32.3565 21.7322 9.69204 17.595 1.61208e+06 976161 1.60669e+06 254368 230722 -53568.1 
3011 1 36.0142 21.7843 9.56528 16.694 639433 212947 1.10603e+06 60888.2 -65601.9 101031 
3012 1 34.3455 23.5731 9.80204 0.646012 514669 -49295.3 736408 407483 -166710 75465.3 
212 1 24.211 28.4903 9.16795 8.10165 178631 1.46574e+06 740990 171586 -802366 482265 
273 1 24.3465 26.6657 10.9971 13.5733 204365 387074 433290 -289276 70477 161619 
211 1 26.0637 26.8471 8.95482 5.45639 -729360 79031 829678 98876.7 343227 -272247 
281 1 28.3301 26.338 8.30264 0.884205 -772715 -22178.7 730448 -8871.05 178096 20918.5 
277 1 27.8773 26.939 10.9414 5.45719 413598 515254 1.06207e+06 -367269 -65699.6 159919 
274 1 25.9039 28.4994 10.9841 1.12227 -340460 75746.6 535455 -432754 52319.2 486795 
216 1 27.7981 28.6746 9.12256 5.70597 981729 113210 1.13684e+06 -156188 130199 252746 
282 1 30.3338 27.9458 8.53085 0.541915 339303 -205830 812800 -20600.2 84666.5 134535 
283 1 30.255 26.2171 10.267 0.290095 542905 386787 504269 -199421 34507.4 227885 
288 1 32.0918 27.9437 10.3986 0.179398 -314275 -147833 608840 -138808 -247351 -203815 
278 1 29.6814 28.6994 11.0532 5.39827 -3231.5 534291 1.44628e+06 81342 202161 121050 
287 1 32.6409 25.4092 9.74214 5.9207 -332887 -43190.2 38268.1 -480471 -321889 -91483.9 
3030 1 34.3433 27.2008 9.76286 6.10481 -139789 31760.6 401579 -27208.2 78607.3 310401 
3029 1 36.1097 25.3734 9.66393 0.140982 279961 24625.6 176029 -220259 -106724 -10516.4 
228 1 23.3936 31.0552 9.08469 18.5809 910791 1.44974e+06 1.1299e+06 -44294.8 56772.5 -4937.03 
289 1 24.1929 30.3958 11.379 9.88686 451936 859147 1.26188e+06 7862.25 -128033 71089.3 
227 1 25.9221 30.3274 9.37605 5.9125 718559 158985 142651 20698.4 -455463 947372 
232 1 27.7617 32.0846 9.45558 5.95435 30439.2 269554 437551 95067.5 -384836 275603 
293 1 27.8275 30.1855 11.2419 0.779336 419696 377216 1.01789e+06 350646 -46609.1 267924 
290 1 26.0314 32.1052 11.3665 5.70775 401764 337973 584388 -451119 71185.2 280394 
231 1 29.657 30.3767 9.0523 5.12705 670495 485646 614374 -234259 66954.5 -257372 
236 1 31.4813 32.1048 9.18904 5.26933 225809 -51908 1.06049e+06 -333854 125960 -198013 
301 1 32.111 29.7502 8.51992 0.295336 -249678 310758 979634 -304822 149116 -202843 
297 1 31.5979 30.2796 10.9659 5.3421 -369764 -553695 1.02972e+06 -175358 279736 -184053 
294 1 29.7111 31.8975 11.0793 0.971135 389783 311627 432054 -109594 -177017 406759 
302 1 33.8769 31.4189 8.5931 0.231629 -66778.4 -635787 974635 -575873 279293 285624 
303 1 33.9173 29.6731 10.4535 0.289978 -165704 -92201.6 662968 734.078 106672 -86900.2 
3048 1 35.7834 31.3919 10.4722 0.275463 243086 17964 674844 -170854 183591 -147219 
298 1 33.2959 31.9927 11.0624 5.86615 -202722 -692174 473056 -171136 150545 -554198 
305 1 23.4661 32.7269 10.9676 18.002 929139 1.04588e+06 1.33903e+06 52729 -33252.7 141176 
244 1 23.5762 34.5604 9.07258 16.9262 136902 1.27295e+06 1.26187e+06 -92488.1 305009 55923.3 
1573 1 27.2368 36.0848 11.0627 5.72102 44852.5 -253915 -5908.26 88391.8 173288 94107.2 
243 1 25.3753 32.8099 9.08982 5.50554 -72344.9 436351 698543 80841.3 35416.9 167248 
306 1 25.3484 34.5076 11.0949 4.99679 -543159 -550116 405280 513026 77021.2 41692.5 
248 1 27.1379 34.4821 9.09017 5.63335 -586602 -1.11065e+06 -123698 176447 14243.9 -270108 
309 1 27.8416 33.7603 11.3944 6.04595 409240 -698118 126662 -256198 -113026 -232648 
310 1 29.7432 35.4241 11.4822 6.22954 331593 -255105 -4318.24 -50109.4 -28889.6 -89403.1 
247 1 29.5963 33.8034 9.46405 5.84439 -268168 -315489 -138385 -242933 -635802 792188 
252 1 31.3652 35.4482 9.41405 5.07414 -185487 -180385 266639 -84332.7 -168717 530091 
313 1 31.4918 33.6455 11.1669 0.234574 -203041 -319043 -385036 235982 17833.4 28705.5 
251 1 33.2106 33.8355 9.2156 5.00659 -509402 -206941 206350 -25163.1 387959 -377452 
256 1 35.0728 35.5645 9.23365 5.55428 -24913.3 -177525 521453 250847 367660 -382156 
3063 1 35.5021 33.2195 8.58174 0.757767 -206155 -249413 770112 -491173 43815.5 -85384.8 
317 1 35.1399 33.6979 11.0783 5.98425 -718933 -581183 128167 204176 248916 68742.3 
314 1 33.408 35.3545 11.188 0.229219 45719.5 -689175 -136489 471779 208018 274607 
3083 1 35.9161 21.6006 13.3381 17.3392 889278 640264 985740 238649 214224 -5884.82 
321 1 24.3792 23.657 14.7833 29.0562 187625 393916 579678 -336898 -44970.7 149011 
260 1 24.3186 25.2207 12.9332 15.3623 259035 39554 518875 -248776 -221488 759683 
259 1 26.0461 23.4159 12.8384 9.94474 359068 140588 1.51203e+06 -397557 18218.7 -191020 
325 1 27.8542 23.1838 14.7549 11.3202 500102 213719 1.14309e+06 156503 46966.5 -192556 
329 1 28.3232 22.5 12.0637 18.6177 772696 890059 1.46638e+06 -9228.08 -129659 28266.2 
264 1 27.8834 24.9747 12.771 6.18788 -585194 449998 960339 -220537 302398 -95183.7 
322 1 26.2575 25.0846 14.6705 0.759197 -856307 -1.32792e+06 -462947 -576376 1896.94 527219 
333 1 30.6808 21.8222 11.547 16.2238 872424 534089 1.05557e+06 -197210 443110 -52652 
334 1 32.4366 23.5942 11.6907 5.90193 -498551 -350140 -332236 325527 -200332 80932.5 
326 1 29.7613 24.8933 14.7108 5.79786 136569 27578.1 661257 139448 529392 -390592 
330 1 30.1938 24.3532 12.2135 0.355136 -747819 -36783.7 433011 99628.9 294213 148654 
331 1 30.131 22.5878 13.9098 14.994 972315 -237988 1.01318e+06 -160453 151386 172716 
336 1 32.0429 24.2334 13.9938 0.21663 -589359 -508216 -214168 -360832 334146 -143182 
3082 1 36.1111 23.612 11.5409 0.500071 -440789 189037 428881 -111671 31563.5 74032.4 
3081 1 34.1956 21.8035 11.5336 16.7176 1.01329e+06 107747 442059 150296 135231 3952.65 
335 1 32.6212 21.838 13.3953 14.3378 842668 -219911 661832 -412113 494053 396011 
3084 1 34.3677 23.5241 13.3266 6.2617 -250680 -850417 664627 -54929.6 202112 -274258 
276 1 24.2675 28.2533 12.8899 13.367 313580 1.17166e+06 1.2173e+06 451048 323365 -150312 
338 1 26.1816 28.3922 14.897 0.371536 -639246 -561418 334793 131210 305652 95853.4 
275 1 26.1721 26.7706 12.958 0.483031 -805006 -572713 463455 -123701 -169983 417473 
280 1 27.941 28.4756 13.0338 0.255029 528318 -210176 241019 124612 323377 491017 
341 1 28.054 26.7331 14.7599 0.222691 -65426.4 -219056 99741.8 -71832.3 -60326.8 468760 
345 1 31.5965 26.6638 14.717 5.58763 92665.2 -172921 686695 525377 285526 -99510 
279 1 29.7086 26.7562 12.8089 5.61449 -141337 159181 848449 409730 399325 -284918 