ITEM: TIMESTEP
15200000
ITEM: NUMBER OF ATOMS
5780
ITEM: BOX BOUNDS pp pp pp
3.2441678060442918e+00 6.9055832193971241e+01
3.2441678060442918e+00 6.9055832193971241e+01
-5.1731227401063267e+00 7.7473122740121866e+01
ITEM: ATOMS id type x y z c_csym c_2[1] c_2[2] c_2[3] c_2[4] c_2[5] c_2[6] 
69 1 25.6178 21.4697 -2.76112 13.5928 518505 -49715.1 755683 311014 614688 -119996 
7 1 27.2112 21.3913 -4.57297 14.5084 412870 159399 556785 37422.5 192365 259671 
65 1 22.1897 21.8815 -2.71796 38.4588 115598 412252 878714 -401338 276571 392796 
3 1 23.7402 21.693 -4.60543 14.5232 1616.9 -49579.6 358791 30647.5 530370 199504 
4 1 22.1536 23.6154 -4.38834 12.1472 -206924 -711608 -1.08024e+06 -294869 86800.6 -15953.8 
66 1 24.0373 23.3278 -2.58959 5.57528 -1.6151e+06 -1.49437e+06 212243 -210189 -57007.7 -96860.1 
81 1 22.1558 24.9437 -2.35377 13.9425 -309951 823838 149323 88443.8 -139068 68923.6 
8 1 25.5892 23.3746 -4.5266 5.14191 -668174 -328638 -529179 246630 586557 72137.1 
73 1 28.0639 21.8799 -2.0827 10.6691 787575 21989.5 1.09125e+06 -216853 421490 279192 
70 1 26.3013 23.7158 -1.90645 5.31069 -519360 47798 369018 -446114 -287825 7146.75 
12 1 28.0536 23.6714 -3.82873 5.17749 129837 -225553 86532 -210747 735.978 276721 
77 1 31.4338 21.8653 -1.89498 15.3951 984964 -46364.8 967827 -257542 183361 -176.409 
11 1 29.6134 21.7645 -4.08321 10.9346 434980 238847 976817 -179254 131494 54908.5 
74 1 29.7208 23.6557 -1.87837 0.544718 -2279.97 -465544 662696 80359.2 -79332 -40372.4 
16 1 31.4499 23.3721 -3.95785 1.32765 582013 224503 957791 -156593 -323335 34543.7 
2793 1 34.8173 21.6082 -2.08222 16.46 882135 566034 641229 161040 197112 96213.5 
15 1 33.1988 21.6057 -4.02265 19.1625 1.36266e+06 566162 1.80202e+06 -40547 -225891 89232.2 
78 1 33.1891 23.5161 -2.04464 0.241921 -188610 -385660 753639 -487978 -63309.1 410221 
2724 1 34.9414 23.3834 -3.96722 0.232012 103327 -363852 788048 652808 -48254.3 179022 
2811 1 35.0359 25.132 -2.01778 0.350228 -335384 -247185 334291 -59474.4 96863 116091 
19 1 23.9543 25.2081 -4.31349 6.34498 -974323 -1.01891e+06 61001 184458 -201199 26346.8 
20 1 21.9978 26.6537 -4.19323 13.9396 171455 1.68552e+06 1.612e+06 310945 98951.3 105809 
82 1 22.7007 27.5177 -1.7229 9.12072 -25941.4 641407 903639 -262949 -12475.4 725878 
24 1 24.2955 27.5758 -3.70154 5.02798 597686 487638 1.04469e+06 -467057 239210 -81903 
85 1 24.4074 25.6424 -1.86827 5.63868 -247335 321698 550152 -389414 27760.3 -444111 
89 1 28.0394 25.4541 -1.9036 0.247503 -195714 3625.16 244432 66956 -199757 432398 
23 1 26.2531 25.6371 -3.57216 5.66709 -257887 319534 81384.5 -472672 -399231 -330442 
86 1 26.2858 27.34 -1.83047 0.263387 439597 -269937 260576 -291130 354032 -230169 
28 1 28.1167 27.3008 -3.61809 0.421555 -257158 -34392.3 252979 -278065 243203 258195 
93 1 31.536 25.4124 -2.01603 0.364992 -288071 235340 719142 425176 190851 61673.7 
27 1 29.7988 25.4171 -3.83652 0.174432 317684 -4412.45 276155 -326963 -332892 49850.4 
90 1 29.9486 27.1948 -1.85666 0.281785 -221845 -47548 667684 321464 -338490 278986 
32 1 31.5872 27.2329 -3.85353 0.32593 24485.4 -213481 243092 -333295 -40713.2 381930 
31 1 33.236 25.217 -3.85836 0.34873 -105876 298529 104662 -177425 -19327.4 325103 
94 1 33.3924 27.1299 -1.92778 0.244872 256747 271044 626481 -102622 181889 318537 
2742 1 34.9299 26.9753 -3.88158 0.475602 -276706 244133 239890 77295.3 78511.9 -145349 
101 1 24.4956 29.1336 -1.59874 5.12684 771059 -360020 134136 -360967 30080.6 349112 
35 1 22.3982 29.2613 -3.47237 12.0611 905249 1.03237e+06 1.69199e+06 194197 -29402.1 348631 
36 1 22.0711 31.6951 -2.92111 15.5097 564878 736759 1.43902e+06 -389443 3295.35 -51340.3 
40 1 24.4748 30.7941 -3.5597 5.25852 1.12598e+06 792550 1.27994e+06 111826 -43544.6 124258 
105 1 28.1266 28.9475 -1.59115 0.545267 -29236.9 81327.3 470642 -265450 366698 -337911 
39 1 26.2938 29.0664 -3.71988 0.390759 267974 254185 1.03999e+06 -184982 232932 41564.7 
102 1 26.4177 30.821 -1.62892 5.60039 381236 501681 678597 -82030.6 48853.8 241628 
44 1 28.0814 30.7686 -3.60229 0.0832643 -226011 -80786 911268 165704 167375 -77616.3 
109 1 31.6781 28.9499 -1.81449 0.160646 14926 -12863.8 858224 -416228 -36316.3 188783 
43 1 29.8518 29.0331 -3.60717 0.221993 -294466 -395879 472387 -225739 -16887.2 131880 
106 1 29.8722 30.7548 -1.63866 0.298658 354785 56088 181656 9080.33 312590 -48216.8 
48 1 31.5488 30.7829 -3.67949 0.331878 -130558 -237236 703038 187916 -17455.4 -61805.8 
125 1 31.8254 32.4628 -1.78027 0.435673 -278004 216660 131653 165782 4099.66 -211441 
2829 1 35.1598 28.8504 -1.9466 0.257183 100257 387305 969141 -215372 344019 43227.6 
47 1 33.2837 28.9504 -3.79199 0.145772 77803 58639.8 616790 -427354 95051.6 95830.6 
2760 1 35.1296 30.6334 -3.83792 0.175306 34360 -254602 919204 375157 251157 -69695.5 
110 1 33.4417 30.6148 -1.71727 0.433414 -73541 -589802 364917 154406 17507.4 -114473 
2847 1 35.3583 32.331 -1.8792 0.546131 -493300 -32112.8 -39426.1 224872 -197211 -194413 
63 1 33.532 32.4089 -3.62027 0.539116 -144820 407664 677749 133760 321658 -8440.05 
51 1 23.9693 33.2286 -2.91205 6.00972 -458321 148546 439233 -304689 -236504 63119 
52 1 22.3129 35.1069 -2.79329 15.5806 -180890 598383 842394 -390166 226539 -46562 
50 1 23.9772 35.2761 -4.61066 5.88409 -1.56756e+06 -370831 -238234 -295616 -170773 -297692 
49 1 22.3231 33.509 -4.74418 12.6956 -832193 280255 338069 38820.2 -128019 -147722 
121 1 28.1718 32.6014 -1.69872 6.15503 -420331 -512459 360227 -329192 138476 79184.6 
55 1 26.3836 32.5288 -3.54947 5.744 4838.66 98210.7 770868 10331.7 120389 191466 
56 1 25.7237 34.9707 -2.94756 5.83203 188565 397129 296546 85325.6 -304258 102410 
60 1 28.0859 34.2982 -3.5351 5.75938 165356 -63385.9 337533 -121647 103243 281312 
59 1 29.8825 32.4997 -3.49133 0.374747 -72924.7 -200280 239705 409975 203885 -36078.4 
122 1 29.982 34.2247 -1.61867 5.78275 -61567.2 -260846 325954 -358443 -2039.28 205667 
64 1 31.7493 34.3487 -3.6197 0.326023 140164 154607 293325 12058.1 23767.7 -101543 
1365 1 31.8097 35.9681 -1.63878 5.70548 -235548 8178.7 -181934 -97019.1 -268621 -78236.4 
1291 1 30.033 36.0629 -3.46372 6.1197 163804 114644 587352 431559 -81321.1 86967.1 
2778 1 35.2251 34.2175 -3.70086 0.266315 -187484 -104565 574551 -37259 96826.1 185079 
126 1 33.6043 34.1922 -1.63909 0.602424 -816407 -510812 -442688 -389435 -462474 -335774 
4242 1 35.2776 35.9984 -1.75676 0.490111 -533553 -424173 -110240 154502 361728 186638 
1295 1 33.5716 35.9743 -3.65307 0.12508 -461129 -444541 481844 248484 -91509.1 -131727 
67 1 24.0033 21.5113 -0.914482 23.9808 819814 481011 1.17586e+06 95935.6 414361 243664 
133 1 24.4366 22.0159 1.8297 13.3161 1.11655e+06 643467 1.45849e+06 -95001.4 507529 289713 
68 1 22.2883 23.3402 -0.550973 21.7654 600966 531245 1.01947e+06 59249 -106292 336339 
130 1 22.751 23.9095 1.87261 11.3133 525689 548769 504030 -168765 75088.8 -155001 
72 1 24.6739 23.7792 0.0483401 6.15426 285010 646205 762441 -830582 -244287 209356 
71 1 26.4414 21.8406 -0.153288 12.1717 1.08115e+06 413299 1.39232e+06 -446300 -116670 259492 
137 1 27.9341 22.0028 1.83651 15.5948 1.16717e+06 49879 1.37482e+06 -70160.3 -196047 94119 
134 1 26.2819 23.8082 1.88021 0.328365 378602 474399 601600 24117.6 -278166 -71886.4 
76 1 28 23.6937 -0.0424134 0.300744 250257 125051 528071 -454455 132680 514209 
141 1 31.5076 21.7721 2.01151 17.3905 1.27075e+06 466826 1.54922e+06 -237294 -173465 -62536.2 
75 1 29.8325 21.8422 -0.0144726 16.4616 1.14407e+06 420405 1.30778e+06 -528460 331825 84997.6 
138 1 29.7699 23.6428 1.9605 0.239704 538360 254102 1.15436e+06 -242843 107208 -14033.8 
80 1 31.5514 23.5017 0.0132112 0.255986 -184408 -515518 609340 -117645 -302773 -395830 
2865 1 34.9794 21.8108 1.77217 15.1837 -66615.6 -706155 579826 148006 -34641.7 53169.6 
79 1 33.2686 21.6631 -0.14807 16.5102 1.004e+06 227405 1.0467e+06 -229729 -104949 3485.68 
2796 1 34.9589 23.4172 -0.138463 0.112901 -173247 -956694 100266 384823 253278 351647 
142 1 33.2982 23.4403 1.78352 0.355465 -805785 -713125 663371 195457 -239605 173608 
149 1 24.4613 25.7246 1.93835 6.34607 -259684 -255126 598406 -638564 -108352 106263 
83 1 22.684 25.7746 0.0912084 9.15939 413195 462021 745719 -485635 -46334.9 291443 
145 1 22.0947 26.3113 2.54438 15.6581 240330 614193 750297 -102280 107331 350102 
84 1 22.1798 28.1629 0.846661 13.609 -318890 415599 321182 -445768 -165654 -264672 
146 1 23.9197 28.0487 2.61168 5.16611 -890129 -945766 -324029 83546.8 -180314 2313.37 
88 1 24.4929 27.4236 0.114465 5.97307 -303208 -919758 -47665.9 -292825 -90591.2 540913 
153 1 28.0994 25.5137 2.09415 0.89974 -33813.7 -319068 106671 -148226 290203 -19165.6 
87 1 26.2942 25.5977 -0.0212185 0.472655 223644 -16988.5 873745 -541078 166783 160468 
150 1 26.2734 27.2582 1.97978 5.1141 -348049 -489760 217788 -503793 82027 244614 
92 1 28.2016 27.1141 0.229779 1.00195 103440 100276 644055 -120221 -197123 415647 
157 1 31.6339 25.3293 1.8709 0.172575 -416180 -365529 763273 431038 47775.6 -136383 
91 1 29.9316 25.3183 -0.0199076 0.52709 54256.8 -309401 348548 139722 -134923 -249491 
154 1 30.0388 27.0489 1.89904 0.998236 -857061 -455046 -227136 44447 8734.28 118210 
96 1 31.603 27.1836 0.0329419 0.361857 96096 355021 -123341 -44675.4 105935 180763 
173 1 31.7814 28.8316 2.00519 0.320489 -130350 13263.4 86631.6 -149809 -50591.4 217288 
95 1 33.3415 25.306 -0.0901665 0.190316 -243556 115375 295485 -80468.9 -172380 112788 
2883 1 34.9881 25.1881 1.73819 0.605669 -516157 -575619 -55105.1 83631 -28667.5 331334 
2814 1 35.2279 26.8443 -0.0831866 0.927379 -826720 -665551 532338 360322 -173615 285941 
158 1 33.4357 26.9988 1.91855 0.176067 -502200 -706321 518805 222204 -332906 69297.6 
2901 1 35.187 28.7528 2.03954 0.392243 -402259 -448837 -54030.7 196377 -467588 515674 
98 1 24.0137 31.5233 -0.997335 5.58918 -191954 -232928 1.14689e+06 -117339 -72906.4 234713 
97 1 22.0458 29.9994 -0.982216 13.8713 667464 1.32056e+06 1.23742e+06 -329841 -67249.8 -176347 
161 1 22.1778 29.7236 2.73803 17.6616 -132750 330466 737200 4821.66 -39035.1 -332325 
99 1 23.9993 29.7297 0.795024 5.54657 -133899 -605667 -66760.5 -570987 26496.8 149728 
100 1 22.1278 31.5361 0.975214 18.1242 716761 1.23574e+06 830788 -103288 -119911 56790.2 
162 1 23.9564 31.3808 2.80975 0.330989 -275675 -372003 645957 184070 59244.4 372885 
169 1 28.0989 29.0076 2.08021 6.33721 78871.8 125449 309517 -207977 -129250 58842.3 
103 1 26.4451 28.9698 0.19459 6.02932 -236588 -10358.1 -210375 -461010 207415 378747 
104 1 25.8216 31.447 0.827485 5.19303 -365223 -139652 459890 -536572 10242.9 184087 
165 1 25.7295 29.6996 2.64869 5.22628 -306431 -328400 -163467 -25384.6 239281 103615 
166 1 27.6963 31.3564 2.6626 5.4718 -561062 -590411 12351.9 145255 289923 -201095 
108 1 28.1675 30.7404 0.178006 6.15303 -623748 -431290 -112692 265408 151073 -224777 
107 1 29.8818 29.0293 0.301147 0.971552 -152597 -323810 451996 246507 -195633 47226.1 
170 1 29.9864 30.7511 2.05549 6.35216 -117014 -260276 150047 39359.9 268107 -438476 
112 1 31.7649 30.6815 0.219437 0.198305 -330424 -39491.7 393667 -322572 198042 36745.1 
189 1 31.9165 32.4299 2.07458 5.85246 -2175.58 -682519 134684 -169905 36572 -55701.9 
111 1 33.5814 28.8646 0.123881 0.54776 289673 19641.5 318671 -460100 -55000.6 119999 
174 1 33.5809 30.581 2.0244 0.218727 -923989 -704201 -225690 -3897.68 143066 -224164 
2832 1 35.2084 30.6142 0.154135 0.442668 -915351 -1.06343e+06 -137218 -406591 -49910.2 -450936 
2919 1 35.2959 32.2774 1.88106 0.4155 -489559 -467502 -486378 211742 301335 -394117 
127 1 33.5327 32.3209 0.0762131 0.266765 -798676 -1.02401e+06 -348024 21797.4 -412242 -150780 
114 1 24.0041 34.9681 -0.871833 0.243966 -89740.3 129697 1.14967e+06 372678 -38707 -24382.1 
113 1 22.2806 33.2445 -0.892177 14.997 185065 921699 1.23213e+06 1061.05 36939.1 55309.4 
115 1 24.0345 33.2191 1.07464 0.275203 267864 727194 852008 204238 122675 293633 
116 1 22.2417 34.9525 1.08747 18.581 630897 1.25174e+06 1.38272e+06 213217 91998 275406 
177 1 22.3291 33.234 2.94001 16.9291 569663 1.21179e+06 1.16478e+06 240636 338067 -297070 
118 1 27.6189 34.9373 -1.0234 6.0997 414435 -66298.6 837351 62979.3 183891 226751 
117 1 25.7507 33.2498 -0.998915 5.86039 129966 -31619.9 964777 -209170 -160291 131250 
181 1 25.8824 33.0581 2.92094 0.334386 385472 542793 606440 308736 -162044 -35140.4 
119 1 27.5393 33.0956 0.876804 5.87554 240478 -474037 805562 -110234 -133120 138078 
120 1 25.9669 34.9341 1.01751 0.234294 253782 422022 1.24138e+06 354416 -26961.1 -197949 
182 1 27.7761 34.8741 2.80302 0.117066 -70412.9 734.592 418970 595748 -63767.6 -209833 
123 1 30.0852 32.5102 0.116511 6.38506 536701 -407263 384984 -156427 12202.1 140738 
185 1 29.4666 33.0976 2.65824 5.95738 363729 -392330 664877 63492.1 19990 -271971 
124 1 29.464 34.8964 0.85269 5.79821 813914 314547 449037 107407 214458 93162.5 
186 1 31.4338 34.7784 2.70423 5.68208 -445402 -642713 303076 -279874 371731 -91889.5 
128 1 31.8535 34.2061 0.167068 6.09573 -292271 -436738 206943 -319503 92022 79073.4 
2850 1 35.3229 34.109 -0.043559 0.51127 -750004 -59267.8 -118787 691101 -365245 164046 
190 1 33.7076 34.1203 1.94882 6.10433 -499168 -791338 565446 216924 239916 -140852 
4323 1 35.5553 35.8654 2.07038 5.80705 -734295 -674473 159980 65884.9 -8073.38 425231 
1367 1 33.6652 35.9365 0.0485502 5.92642 -994632 -1.17601e+06 -476395 -32938.4 506000 -291333 
131 1 23.0995 22.1166 3.79087 40.0767 -135662 -482406 611042 -981129 150071 92357.9 
129 1 22.2443 24.5126 4.18382 16.2643 -536929 138031 -723573 70372.3 329751 -289584 
193 1 22.1717 23.0342 6.20042 43.9095 230379 465252 1.20575e+06 -231097 -199029 287220 
194 1 24.01 24.5611 6.18744 0.976189 -867719 -701795 473798 -702797 145304 362624 
197 1 24.4648 22.127 5.87067 16.4928 818459 383372 1.07415e+06 -28424.3 -218957 -22839.2 
136 1 24.5215 23.8597 3.79895 6.15227 -1.51531e+06 -1.54348e+06 947693 -1.22694e+06 165386 -260296 
201 1 27.858 21.8514 5.7597 17.7086 1.3832e+06 502171 1.20019e+06 193067 8216.39 118610 
135 1 26.1817 21.9674 3.86545 16.4853 1.60404e+06 574501 1.68027e+06 -82338.8 -152296 26325.1 
198 1 26.357 23.8437 5.74082 5.57462 -355589 -386127 529574 -347222 179391 292686 
140 1 28.0341 23.6268 3.91305 0.528199 88224.6 228649 365638 80455.2 19329.2 93803.2 
139 1 29.7543 21.8375 3.91119 18.1154 1.25571e+06 493215 1.67465e+06 -26695.8 -14442.4 15239.2 
205 1 31.513 21.7712 5.74211 18.7604 1.4257e+06 913264 1.15751e+06 -103791 57595.5 143976 
202 1 29.6646 23.7653 5.75125 0.750808 414977 488129 -74877.4 -249651 -182862 110326 
144 1 31.5728 23.5227 3.90998 0.276621 181142 -591910 1.23678e+06 629851 -72435.7 -49402.1 
2937 1 35.1775 21.6667 5.69561 15.4952 1.23403e+06 355440 1.40573e+06 -382719 3389.36 -242296 
143 1 33.2408 21.8355 3.87733 15.7834 712687 8606.67 1.27285e+06 234581 35415.4 -25373.4 
2868 1 35.0543 23.4759 3.68005 0.244757 24694.5 -371449 867803 179991 152974 -153336 
206 1 33.4398 23.5779 5.81002 0.570015 296979 -57605.4 317445 -143507 2274.37 129386 
132 1 21.7217 25.5339 6.2511 31.0103 366773 673644 683750 -157095 13952.2 -878770 
147 1 23.9818 26.248 4.42673 3.7869 -413327 -669891 426597 287686 25584.1 244480 
148 1 22.2748 27.9004 4.62458 11.9702 -21171.6 1.31782e+06 1.2118e+06 466159 34507.7 -175697 
209 1 23.3609 27.17 6.79792 6.6492 -673750 -319955 445575 -471574 -150144 112239 
151 1 26.2857 25.4871 3.79565 6.09987 -605784 -561701 261948 -425424 68453.6 100630 
217 1 27.9336 25.6118 5.73343 5.79522 -408220 -758856 649292 -617138 -54841.1 197357 
152 1 25.802 27.9271 4.44204 3.21491 383913 293620 781568 104430 -231387 159536 
213 1 25.6435 26.2839 6.47275 0.930352 -692145 -86300.9 686483 -478008 72546.2 -177581 
214 1 27.4407 27.955 6.41423 0.588329 138480 -396904 430720 -318797 64658.2 179132 
156 1 28.2223 27.1547 3.85293 6.18925 241526 -486449 14533.3 -293890 -174495 -12026.5 
221 1 31.6083 25.3604 5.77535 0.0950163 -114931 148132 -125136 -149648 -248734 259557 
155 1 29.9735 25.3679 3.89727 0.597356 -116250 -339422 150186 131115 -360252 356081 
218 1 29.8436 27.2063 5.77726 5.91901 224063 -127427 363343 -160174 -225699 213570 
160 1 31.6852 27.1025 3.88185 0.170651 -688354 -755902 280765 -435336 -338260 208845 
2955 1 35.2315 25.2333 5.718 0.240981 -407364 -494333 589379 -634379 -157160 -115580 
159 1 33.4551 25.2788 3.85838 0.3629 -14296.4 -303828 611513 92532.3 61265.4 57666.5 
2886 1 35.1518 26.9763 3.70262 0.420605 -907380 -872561 135059 -349200 88162.2 456532 
222 1 33.4891 27.035 5.65275 0.357596 -94400.1 -431820 36306.1 -242268 -282368 227992 
2973 1 35.2702 28.7035 5.79009 0.289259 -280861 -80436.5 195865 -201592 -664.843 124106 
175 1 33.4222 28.7497 3.95177 0.557125 -448021 -277095 -199276 -68866.8 310650 409300 
210 1 25.1071 28.892 6.84628 5.59774 -285345 -312153 1.33494e+06 -602351 -10413.4 -50702.6 
225 1 22.5846 29.541 6.60302 10.9332 185451 528681 271123 -62723 50199.9 447709 
163 1 24.0554 29.6164 4.54843 3.8641 -1.05753e+06 -296304 -43395.9 397449 398820 -48459.2 
164 1 22.2989 31.2229 4.8164 17.2103 290797 960278 1.15948e+06 517711 173494 -62834.9 
226 1 24.3912 31.2255 6.68181 5.13638 -68866.2 -637394 48447.1 -256939 172421 243454 
167 1 27.7334 29.5991 4.65392 4.19478 -681385 -343265 250059 243931 34476.8 332031 
168 1 25.9838 31.1628 4.6515 4.39678 -547576 -430871 84292 392474 -42622.7 -198847 
229 1 26.8815 30.4868 6.88577 5.95826 403936 -129097 519780 -462283 -87620.6 227247 
230 1 28.8588 32.1167 6.86822 5.71634 407493 920087 767217 44891.7 326137 -137567 
237 1 31.7458 28.9379 5.71377 5.83392 -269891 459438 346075 -193954 360844 -10990 
171 1 29.9991 28.8727 3.80035 5.82344 -418197 -203522 711762 -47802.6 83519.7 139755 
172 1 29.475 31.2725 4.57511 4.22946 -612572 31349.4 31430.5 191341 -122460 -40009.2 
234 1 31.1599 31.414 6.37222 0.427429 -758174 -50939.7 101438 -305081 -45388.5 74147.1 
233 1 29.431 29.564 6.44643 0.607693 20529.6 -130165 105145 -277276 -479784 151876 
176 1 31.805 30.7351 3.92654 6.01359 -25682.7 -196749 261546 173936 19077.1 253096 
238 1 33.5414 30.6662 5.77083 6.31202 319733 11474.6 500087 -110097 -142695 -52836.8 
2904 1 35.3327 30.5836 3.84943 0.0912021 134645 35205 450991 558193 -248956 -136455 
2991 1 35.464 32.4282 5.67245 5.71494 -46751.7 -229973 387401 -340936 -155850 -193909 
191 1 33.7486 32.4094 3.8331 5.27009 -450695 -634088 -158390 400128 12075.9 -170329 
178 1 24.2435 34.969 3.0959 0.710066 -7019.64 590224 344230 351837 185022 -282509 
241 1 22.4137 32.9217 6.70264 18.6625 1.02704e+06 1.72585e+06 1.3981e+06 160740 330976 -76020.4 
179 1 24.2312 32.9374 4.93996 0.958489 384692 289650 517522 424868 163777 71439.9 
180 1 22.5821 34.805 4.85428 16.1734 117175 1.26e+06 974450 91556.5 394226 -217524 
242 1 24.4603 34.7429 6.65181 0.343705 74488.6 219442 151876 467608 444927 -102580 
245 1 26.2215 32.8982 6.60335 5.58879 24662 113569 276219 -315292 389287 -4281.64 
183 1 27.706 32.9128 4.65136 4.49682 -273888 181949 55487.3 329143 121825 -535064 
184 1 26.0503 34.8405 4.78491 0.343391 -231540 10812.4 -158679 521762 52780.4 -241592 
246 1 28.032 34.6109 6.51558 5.7201 638523 377855 814666 -78069.2 103587 -310464 
188 1 29.657 34.6642 4.59036 4.08152 -297070 179190 336270 626474 169257 -266774 
187 1 31.4001 33.0808 4.54101 3.14738 -350004 -629350 -290769 800594 -152594 281680 
249 1 30.7012 33.9073 6.8639 6.2346 574016 665860 1.00878e+06 -297884 -43328.2 -207579 
250 1 32.5559 35.541 6.87478 5.8017 663905 181535 749359 -259727 -99094.8 286685 
2922 1 35.6134 34.1654 3.82523 6.04803 -730101 -1.08229e+06 359211 -38680.8 291754 575868 
192 1 33.3356 34.735 4.54046 4.53271 -385742 -388136 145887 257330 -18461.8 163803 
253 1 33.0306 33.0011 6.35218 0.49189 -334882 -247893 75606.2 -100490 -392962 53086.2 
254 1 34.9665 34.77 6.43958 0.334472 -271475 96573.6 42677.3 209194 -89731.7 75658.7 
195 1 23.7053 22.997 8.22698 22.1102 355611 374360 843851 -667133 96044.2 -139797 
257 1 23.3399 23.9674 10.4395 30.1058 156959 559510 625433 -317067 -262008 228890 
199 1 26.2166 22.1392 7.67 13.8934 674554 -440698 676745 -490610 37551.9 -138925 
262 1 27.4632 24.4767 10.1856 0.332071 17772.9 -733933 194800 47790.3 -87777 263334 
261 1 25.5356 22.6619 10.0809 20.1341 1.01433e+06 821021 740375 -118112 -7383.89 321266 
200 1 25.6302 24.4132 8.30265 1.0614 358107 -327555 1.17621e+06 -600723 -65829 72665.7 
265 1 28.0327 22.1849 9.50178 12.0793 499008 -593707 733809 -637457 84070.7 397857 
204 1 28.0143 23.7346 7.6386 6.78084 -114948 -383964 381459 -492358 131972 463422 
203 1 29.7673 21.8682 7.62096 18.7329 984654 535104 1.39499e+06 -161967 29212.2 2807.1 
266 1 29.881 23.6541 9.58744 5.21296 -579170 -488366 365575 -708321 -162346 90322 
269 1 31.548 21.7921 9.37242 17.4509 1.01465e+06 506393 919405 188692 -279669 67668.5 
208 1 31.4916 23.6404 7.5805 0.34923 281010 -210068 634197 -367531 64213.6 289806 
267 1 29.8173 21.8827 11.3314 15.0506 1.24464e+06 423997 1.0653e+06 -396665 -236192 358983 
272 1 31.6344 23.5975 11.2746 6.2514 -566600 -1.34095e+06 370311 163537 -384204 234662 
3009 1 34.9567 21.7829 9.34831 15.0378 874153 113895 707456 377260 -237162 240590 
207 1 33.3602 21.8278 7.56877 16.2348 729899 290005 502783 -228642 -424045 249020 
2940 1 35.2816 23.419 7.52573 0.691505 -155226 -573224 -56296.4 -268506 -42731.4 323870 
270 1 33.4109 23.6386 9.43723 0.515367 39701.2 -800827 116126 -31493.6 15122.6 283231 
271 1 33.1749 21.7964 11.2853 15.6246 506267 -62394 885434 423859 -87086.9 -62445.6 
196 1 23.2107 25.5424 8.57069 8.09901 685096 678594 1.22502e+06 -330772 358000 796480 
273 1 23.5111 26.9638 10.7458 13.1073 -289010 656946 926331 541065 197254 642885 
212 1 23.4657 28.7761 8.82525 7.99008 38631 701101 855295 244719 14877 -67694.5 
211 1 25.1407 27.0228 8.77582 5.00014 -560835 335177 103036 115856 83768.2 -163469 
274 1 25.2521 28.7166 10.7775 0.242576 -190662 -172447 947729 368292 -64618.3 59249.8 
258 1 25.2191 25.3891 10.7234 5.21163 -2.02165e+06 -753478 787631 -437365 122142 446317 
215 1 27.4935 26.1376 8.33766 0.5846 -142557 411842 259040 -99515.8 -98238.4 100818 
277 1 26.9433 26.964 10.6566 4.63672 -638850 -418354 781193 -529674 88749.8 -146183 
278 1 28.7984 28.5834 10.749 5.53656 -22198 79819.7 681247 -141508 203335 -128360 
216 1 26.9461 28.812 8.75181 4.7126 235074 201950 457667 72159.1 146509 -89531.1 
285 1 31.5676 25.4564 9.49586 5.90544 -770307 -580346 45444.7 -414316 391575 279658 
219 1 29.7998 25.5079 7.58346 5.81362 -425882 -355164 323938 -277598 182485 -159739 
220 1 29.3061 27.8918 8.34487 0.28106 128629 -337901 454797 -272061 209358 299494 
281 1 29.286 26.1305 10.0844 0.245202 -653653 -103023 393828 -144461 -98360.2 247078 
282 1 31.1627 27.8329 10.2238 0.395567 -676151 -318907 118078 -49431.6 -149068 -194680 
224 1 31.6256 27.1118 7.67304 6.09531 -173065 -96725.7 535550 -264371 -369340 149248 
3027 1 35.1963 25.2351 9.46627 0.0691241 -660176 133038 474805 -381577 -194790 144314 
223 1 33.3502 25.2816 7.67523 0.322968 84395.5 -215769 -233405 -295518 -171931 179.265 
2958 1 35.2241 26.9663 7.58704 0.115633 139825 -117321 -96008.4 -199137 384028 188317 
286 1 33.4052 27.0431 9.45038 5.77246 -468115 -116294 263050 -312830 46166.9 -281250 
3045 1 35.2914 28.7167 9.51742 5.77658 -60594.2 103095 504411 -42127.7 239253 -144347 
228 1 22.6978 31.1986 8.58225 15.3948 478238 848864 881594 -277419 167454 -76197.2 
289 1 23.5265 30.3942 10.9242 8.66802 -27682.9 584196 1.41822e+06 232950 -20763.5 -146582 
227 1 25.2211 30.5106 8.94463 5.74559 86937.8 -244640 290774 233742 -202777 157695 
290 1 25.2911 32.1331 10.9388 5.68076 -99197 -71372.8 1.09923e+06 -526033 -233971 -170613 
232 1 27.1759 32.2053 8.88313 4.70283 591284 234601 846330 -184768 -87558.8 143038 
293 1 27.0992 30.4254 10.7051 0.529427 -69700.7 18672.4 874047 -334502 -192317 -13384.2 
231 1 28.8645 30.3891 8.80546 4.84283 -368529 28814.3 687850 24833 233436 -190091 
294 1 28.9275 31.9715 10.8798 0.720855 153301 -203111 333343 -115037 -247520 -138905 
235 1 31.1565 29.5754 8.30266 0.149475 -602147 272265 548301 -216831 -43293.8 -153048 
236 1 30.6926 32.0903 8.80423 5.56653 114567 265920 838880 -18132.6 -113708 -170862 
297 1 30.6548 30.2668 10.6923 5.28081 -571301 -489817 496765 -37392.7 131189 -220107 
298 1 32.4342 31.9364 10.7196 5.85734 393046 512181 657924 -365188 237454 -307056 
239 1 33.478 28.8567 7.59958 5.93671 -50425.3 14324.9 615754 -3839.97 198663 36099.8 
240 1 33.0096 31.2266 8.26338 0.223116 -87178.3 131059 565625 -136834 220827 55702.8 
302 1 34.8782 31.1273 10.0734 0.213138 -244344 370076 740564 -51619.7 138604 -297655 
301 1 32.985 29.5032 10.1132 0.0890278 -538684 -256154 102217 -230435 91455.3 135766 
2976 1 35.335 30.5449 7.61152 6.49112 -529879 -116152 500391 106631 101198 -281344 
305 1 22.8908 32.7764 10.5258 15.3346 551377 975225 1.26865e+06 95285.4 108656 -200596 
243 1 24.5572 32.8814 8.55464 5.75601 353258 -78532.3 835071 -318848 321748 -217058 
244 1 22.7817 34.6637 8.58727 16.8076 756939 1.67182e+06 1.85699e+06 85100.3 295470 86822.3 
306 1 24.7889 34.6149 10.5124 5.52062 -360492 218965 -108802 360487 664402 -110534 
248 1 26.2795 34.6227 8.6026 5.18763 332172 155670 582151 312590 456575 -19785.4 
309 1 27.0286 33.7713 10.9567 5.16404 -262346 181826 694216 -327747 -481652 -37535.5 
247 1 28.9483 33.8507 8.85298 5.56307 504725 311867 1.12369e+06 -359199 -327846 -284956 
310 1 28.9848 35.4786 10.8125 4.76925 -900952 -208259 328471 666804 -294609 -254993 
252 1 30.7964 35.5803 8.91036 5.75278 -25823.4 -1.07248e+06 232591 114493 -95837.2 48825.1 
313 1 30.7026 33.8761 10.7055 0.70061 96981.2 -257593 72579.5 573759 -45626.4 -253875 
251 1 32.4932 33.8523 8.73131 5.0305 -145759 183246 575685 188075 -19644.1 -129448 
314 1 32.6973 35.4589 10.7304 0.479264 -39448.6 -567067 160357 84959.4 -103602 -280607 
317 1 34.3353 33.6861 10.5974 5.02013 141271 146843 663272 377296 163900 48054.6 
255 1 34.8176 33.0206 8.17383 0.323984 -392467 -163579 493270 -60032.8 220385 -8746.42 
256 1 34.4238 35.4549 8.78706 4.85115 -243374 -227298 255349 80889.6 277143 8072.57 
321 1 23.693 23.5539 14.5593 27.5865 547159 535195 1.19317e+06 -523366 184294 -75789 
259 1 24.8761 23.6042 12.4113 11.7385 7129.06 -212922 629451 492229 234849 199297 
325 1 26.6513 23.3547 14.3695 8.63185 1.39917e+06 -43620.5 1.00502e+06 302197 61022.9 6342.22 
263 1 27.1987 22.7776 11.9847 16.1597 1.03015e+06 187740 723390 -340844 101720 257468 
326 1 28.6339 25.0014 14.4492 5.63192 -270852 50108.1 383426 154977 -127046 102320 
329 1 29.1155 22.5589 13.8354 18.168 996605 566657 860842 -115946 24583 86217.1 
333 1 31.5107 21.9515 13.1612 12.3564 533009 82489 595066 -378005 202548 144843 
330 1 30.9988 24.3287 13.9518 0.882284 110216 -82993 189644 -39719 116130 180459 
268 1 29.1985 24.3458 11.9805 0.145564 -57857.5 327463 574690 -450762 -8978.56 2483.6 
3012 1 35.1095 23.4235 11.3804 0.390942 228300 -456613 10905.3 -13608.2 -5755.16 55809.5 
3081 1 35.0407 21.6398 13.0426 17.8647 1.15636e+06 -46949 869946 11553.9 91200.8 163390 
335 1 33.3375 21.713 15.0102 14.8777 615001 -183674 1.01017e+06 -448131 124753 71144.2 
334 1 33.394 23.5209 13.1951 5.90957 -413695 -771313 -197618 -242374 -51912.1 91488.7 
3084 1 35.1291 23.3344 14.9278 5.97289 -346972 -194049 -40912 -276263 -257770 38906.8 
3099 1 35.3261 25.1437 13.148 6.15248 -110235 -410723 -109895 -184169 33679.6 27562.3 
260 1 23.4944 25.539 12.6941 17.9019 -203644 427224 995030 -64780.1 30690.6 330678 
337 1 23.5781 26.981 14.9077 15.182 -442104 428164 966341 -326091 -56715.7 -106621 
276 1 23.3412 28.6474 12.9701 19.1068 592691 1.51572e+06 1.58115e+06 47715.9 -85849.9 -143214 
264 1 26.8932 25.2086 12.6293 5.60112 -397189 -91094.6 159462 -118689 -67741.7 -24692.4 
322 1 25.2504 25.2851 14.5239 0.660089 -1.35083e+06 -1.09431e+06 788173 -102121 146326 5195.83 
275 1 25.3313 27.1399 12.7931 1.04346 -274018 -76831.3 713849 -396963 -15000.1 161669 
338 1 25.2985 28.5576 14.8884 0.377585 -906355 -890761 649590 271027 34844.7 -41135.9 
341 1 27.0837 26.8844 14.7124 0.375936 -242546 -385416 637062 -36367.8 14636 -154834 
280 1 27.1568 28.7166 12.7398 0.574299 -643454 -169990 929911 -321740 -79683.4 -152288 
279 1 28.7352 26.7881 12.6331 5.55543 -69446.2 -129464 642912 -290893 -245214 139570 
342 1 28.8727 28.571 14.5638 0.21588 -521920 -343147 447160 300319 -94637.5 18491.9 
283 1 31.072 25.89 11.984 0.710116 -211920 -146150 439622 -259653 143688 -27476.3 
284 1 30.6271 28.473 12.5998 5.84858 -558657 -73087.4 -39775.9 -243815 35609.9 -66493.9 
345 1 30.4437 26.7191 14.4291 4.67065 -49872.4 -425436 188769 82558.8 -197306 -95566.7 
346 1 32.4184 28.2999 14.3837 5.83452 57530 -23167.9 371177 -40339.3 -117356 110524 
287 1 33.4227 25.2839 11.385 5.73896 -470235 -455417 185629 -245154 159598 -120013 
3030 1 35.229 26.9652 11.4263 5.51923 -75742.3 -595209 405970 -47981.8 84525.2 -1728.41 
349 1 32.9282 25.8946 13.8109 0.139688 93735.8 -294519 213084 -394970 -200014 -233064 
288 1 32.8878 27.7047 11.9294 0.231475 -871690 -753556 55579.9 112437 -65141.7 -206636 
350 1 34.7704 27.5957 13.8537 0.183506 -484280 -476347 49368.3 -317010 -14160.1 340816 
292 1 23.5624 32.0596 12.9977 10.5994 114306 762372 1.44679e+06 -56734.5 -89018.9 -252904 
353 1 23.5762 30.1366 14.9077 15.3717 -147702 640336 1.26048e+06 411636 70918.7 -190621 
291 1 25.2588 30.2766 12.8565 0.305942 127686 557204 1.15307e+06 352380 -97367.3 -319539 
354 1 25.315 31.8784 14.844 0.976479 -384029 488386 136934 -5785.26 566190 27839.3 
296 1 27.0776 32.054 12.9369 0.6338 -18202.7 -335491 533929 169832 142547 -179830 
357 1 27.1813 30.3158 14.8012 0.225173 289380 154391 620757 719894 -90.2725 -5274.9 
358 1 29.147 32.0676 14.7093 0.774691 -179611 -77953.7 244127 179915 -197407 -172383 
295 1 28.9161 30.3432 12.6916 0.224394 -59351.6 -244503 278183 -368145 -158524 561550 
361 1 30.746 30.2366 14.4291 0.386345 -235797 -237030 529086 -186978 -190834 -194506 
300 1 30.8368 32.0078 12.615 0.427998 -389749 171786 -177361 -370061 -36904.3 -98679.6 
299 1 32.4881 30.0325 12.5425 6.27411 -335221 -365981 234343 45274.8 298429 -62017.5 
362 1 32.5211 31.8843 14.4782 0.268625 -393855 -444537 357249 296148 -243044 103679 