ITEM: TIMESTEP
7800000
ITEM: NUMBER OF ATOMS
5780
ITEM: BOX BOUNDS pp pp pp
2.0051092897683014e+00 7.0294890710247259e+01
2.0051092897683014e+00 7.0294890710247259e+01
-2.2284505094022413e+00 7.4528450509417780e+01
ITEM: ATOMS id type x y z c_csym c_2[1] c_2[2] c_2[3] c_2[4] c_2[5] c_2[6] 
3 1 24.0269 21.9848 -0.331304 15.9853 205211 336973 810663 -149063 262060 -98332.7 
4 1 22.1868 23.6725 -0.225936 16.8334 653791 317520 1.16409e+06 -59169.7 13205.5 -238885 
65 1 22.4204 22.0116 1.58118 28.6482 545407 579286 776663 -105597 -165045 124568 
7 1 27.3431 21.7185 -0.28096 12.9995 1.19803e+06 633370 895539 131209 118732 -295127 
8 1 25.7575 23.7172 -0.247715 0.461466 -391056 -240856 -38275.2 -146467 -117628 -215394 
70 1 27.4087 23.5327 1.51495 0.829876 -472504 -222029 235952 -180318 88607.6 63114.4 
69 1 25.7035 21.8029 1.50506 17.8608 758390 199491 914476 -259797 204690 148923 
6 1 27.3883 23.7241 -2.17677 0.313194 177306 -75788.1 603518 -360640 -48351.1 -539283 
5 1 25.6863 22.0251 -2.14962 15.2996 540127 -268389 843849 -115208 121145 -78821.1 
11 1 30.9058 21.9011 -0.328736 17.3951 1.32717e+06 551297 1.61533e+06 75300.7 -111817 189592 
12 1 29.1171 23.6352 -0.232916 0.397384 659463 96872.1 284831 157396 257931 -192260 
10 1 30.985 23.6682 -2.19983 0.187452 -23234.7 -365543 875563 -475833 -172232 296689 
9 1 29.211 22.0266 -2.20226 15.3176 739679 216818 1.14173e+06 -191945 -521351 -177890 
73 1 29.1725 21.8318 1.58943 18.615 1.1955e+06 142842 1.38743e+06 387126 138418 162880 
16 1 32.6978 23.665 -0.304882 0.184795 209473 -198554 792283 -144679 -125092 367251 
15 1 34.4194 21.9391 -0.404231 16.1205 1.11338e+06 277933 1.57819e+06 44257.9 316833 207991 
19 1 23.9486 25.4101 -0.421705 0.470105 -53135.9 -423849 608159 -245139 138859 -342702 
20 1 22.1742 27.2039 -0.422867 15.8034 206974 1.47778e+06 1.1463e+06 -68297.2 503846 33906.4 
81 1 22.1132 25.4264 1.57625 19.0557 859797 1.37781e+06 1.45669e+06 -214784 25893.4 -168660 
82 1 23.8738 27.1919 1.60017 0.191748 -427006 361753 844137 -142940 297007 175090 
23 1 27.3857 25.5974 -0.376904 0.55341 -680302 -50275.5 281652 -495940 -151196 -124216 
24 1 25.542 27.2359 -0.361509 0.382386 -123471 -444802 615079 322162 -32265.6 -90857.3 
86 1 27.3383 27.4155 1.56423 0.562717 -123818 -37917.7 697792 -421599 405758 55055.8 
27 1 30.8601 25.5334 -0.315033 0.198354 370950 683331 339373 -25646.9 -530601 43530.1 
28 1 29.0488 27.2996 -0.313342 0.261356 -489112 -597630 241925 -106047 -22116.4 -235563 
25 1 29.2249 25.4673 -2.11549 0.496565 -148917 461849 485293 -233550 -46283.5 -158355 
26 1 30.9286 27.2388 -2.21621 0.179858 411957 605890 741315 -456034 -159695 -9325.53 
90 1 30.8643 27.3007 1.56694 0.195141 626736 184372 728840 75708.3 -15131 46000.7 
89 1 28.969 25.4918 1.5217 0.892325 770299 618829 778846 30735.8 -97611.2 2076.88 
32 1 32.6819 27.3048 -0.374195 0.424169 -530591 -180373 478803 -25205.1 103748 -8500.19 
31 1 34.3988 25.4407 -0.333864 0.189134 100845 524131 480958 -83619.1 -328710 284439 
30 1 34.3957 27.1797 -2.19898 0.140711 -279131 -401516 384132 -186742 234355 187957 
93 1 32.6335 25.4252 1.58119 0.218533 -96985.4 337682 1.08705e+06 -312141 -126148 12881.2 
29 1 32.7788 25.346 -2.1635 0.401298 -164114 -486745 209314 -368979 -449387 333978 
35 1 23.9126 28.9951 -0.391579 0.590487 -884137 -531857 577101 -154343 283026 -86923.1 
36 1 22.0626 30.6797 -0.276102 16.2237 189581 1.25543e+06 1.23307e+06 -116586 -33906.9 70617.9 
39 1 27.3518 29.0418 -0.373736 0.201235 -528030 -773816 267660 14647.7 -259424 24309.7 
40 1 25.5385 30.7098 -0.287811 0.283468 -345499 -418036 563719 -453784 -220880 -326077 
102 1 27.3103 30.7672 1.48219 0.385575 -298031 -72918.5 261677 1323.74 -176555 -210877 
37 1 25.5278 29.0498 -2.21736 0.24717 234817 42337.7 -142355 -106082 277972 283794 
43 1 30.9536 29.0014 -0.221017 0.584078 -133084 -485180 424526 -161201 199026 162798 
44 1 29.0149 30.7317 -0.41129 0.35916 -92638.9 -69089.5 371748 -318838 169141 36763.2 
105 1 29.1119 29.059 1.50453 0.251435 -713509 -359677 372565 -208320 -129199 -84724.3 
42 1 30.9157 30.8011 -2.18935 0.250095 380399 452000 498656 -502625 -177317 -86852.1 
106 1 30.8729 30.7914 1.54807 0.22965 493452 217971 702682 -449336 80906.5 74322.2 
47 1 34.3945 28.9824 -0.294309 0.0905893 -503163 -247287 349714 -446517 -9006.73 -190423 
48 1 32.63 30.7019 -0.363107 0.363294 -148745 147489 617482 -246320 -166761 31660.8 
2760 1 36.097 30.7866 -0.383561 0.238616 -267594 -353788 640986 -242214 -181308 -75779.1 
51 1 23.7183 32.5035 -0.275508 0.156801 -272204 -64452.3 793035 415103 -106119 -43756.9 
52 1 22.0762 34.1907 -0.226722 14.3278 -320990 203752 582165 279490 -195384 127179 
49 1 21.8798 32.4328 -2.16853 17.224 533081 1.35234e+06 1.63804e+06 233646 -95293.3 -141908 
1283 1 23.555 36.1277 -0.256717 0.402678 -84120.9 341895 992530 -528705 151792 96135.1 
55 1 27.2543 32.5094 -0.433931 0.378063 -335111 -266500 -2630.14 -593514 160882 -12864.1 
56 1 25.426 34.433 -0.260368 0.476288 728062 786433 718473 -120123 -11351 -6683.73 
118 1 27.1889 34.2966 1.55442 0.202011 -275049 93217.1 894163 -206130 137243 -75335.3 
117 1 25.4984 32.5078 1.59411 0.0756693 407316 358839 809816 -271400 -162520 -55282.9 
59 1 30.8261 32.6034 -0.325474 0.218697 146528 268236 848429 -297243 250294 -99996 
60 1 28.9494 34.218 -0.275766 0.527233 32238.4 -446575 124158 -311265 81783.6 -417551 
1291 1 30.7795 35.9583 -0.24969 0.402905 60261.6 73462.5 298667 223429 361034 -2562.74 
1361 1 28.9116 36.033 1.46977 0.571851 184899 135015 721384 89543.8 43364.6 -60130.5 
57 1 28.9414 32.6589 -2.20207 0.554156 280442 242535 -191070 -208430 335743 -46652.8 
2778 1 36.0558 34.3279 -0.248727 0.237407 -26921.2 260210 579247 43802.6 -76688.1 86799.2 
64 1 32.5162 34.284 -0.167067 0.363631 -925905 -1.13191e+06 585743 -225559 -128455 -16475 
63 1 34.3297 32.6258 -0.277374 0.339687 -177632 48798.5 333972 -115834 65031.1 109441 
1295 1 34.1892 36.0128 -0.216991 0.44751 -432234 226801 189419 -88666.9 107457 167213 
62 1 34.3753 34.2499 -2.18832 0.511657 -420679 -509394 126184 -264545 -186669 11236.8 
4161 1 35.9305 36.143 -2.04849 0.828233 4834.01 -336568 511066 133991 -87315.7 -234100 
61 1 32.5626 32.6277 -2.14989 0.372803 -154589 -342944 52479.2 -489606 -81337.4 97069.2 
1293 1 32.5395 36.0064 -2.12358 0.322663 -729618 -500401 580398 -164064 -45497.6 -194621 
66 1 24.1215 23.7633 1.6665 0.780773 -184491 -232899 380062 -661038 118373 -179478 
67 1 23.969 21.9273 3.4662 17.0379 440858 332929 758760 118859 -85774.1 571.917 
68 1 22.2905 23.7456 3.48317 16.0737 202314 580713 1.31623e+06 -147398 49865.3 39055.3 
130 1 24.1334 23.7189 5.33956 0.75712 -1.18852e+06 -1.14632e+06 239763 -321588 -58022.3 109965 
129 1 22.4358 22.0643 5.41438 27.5777 566237 559779 1.101e+06 -318788 169560 -23891.5 
71 1 27.4689 21.8804 3.49829 15.9934 1.20799e+06 97390.3 1.41292e+06 122127 -15151.1 -70409.5 
72 1 25.8046 23.6768 3.5142 0.226636 -559990 -197846 160319 37907.1 -186003 14080.2 
134 1 27.3788 23.5443 5.43249 0.578553 24360.9 -146302 -104799 -1767.74 53402.3 51457.8 
74 1 30.9044 23.7495 1.66946 0.255278 260051 372135 866969 -313954 55456.9 7995.17 
75 1 30.9653 21.837 3.4986 18.8021 1.20857e+06 532994 1.30232e+06 -106755 341353 -16182.4 
76 1 29.1995 23.6723 3.51204 0.165675 367437 8361.29 1.04579e+06 -440194 273857 -119317 
137 1 29.2642 21.8131 5.34745 17.5504 1.15604e+06 681043 1.39673e+06 -103046 221541 72117.3 
77 1 32.7529 22.035 1.70118 15.0354 719738 21709.9 849003 -359915 -191630 -84717.3 
78 1 34.4308 23.7339 1.68015 0.299557 -226487 -412622 825637 -720891 -77377.7 259627 
80 1 32.609 23.7138 3.58065 0.305196 -330031 -166358 12454.9 -215488 -96874.2 -15060.4 
79 1 34.4362 21.9495 3.47767 16.4246 693834 364945 545157 -101269 -35407.4 238061 
142 1 34.2933 23.8477 5.39192 0.924112 129074 -675671 330272 -317165 -296247 322586 
141 1 32.8458 21.9062 5.42626 15.7003 1.1359e+06 82356 1.18459e+06 -129809 -139339 48043.1 
83 1 24.0349 25.454 3.51669 0.13812 -670354 -873745 266335 125068 276179 -48333.4 
84 1 22.3234 27.1137 3.54921 13.8646 -601459 376931 512687 -92683.3 -234576 -86989.6 
146 1 23.9149 27.2471 5.38075 0.410588 -304434 -88360.2 177972 -653551 -217492 266723 
85 1 25.7672 25.5311 1.65929 0.469402 113230 -225766 485788 -542240 181984 -17211.4 
87 1 27.4114 25.4925 3.60309 0.219086 -289909 326841 699094 -396390 -71892.1 68765.1 
88 1 25.6544 27.2999 3.52473 0.218603 469142 -13153 431980 -291929 357550 52062.9 
91 1 30.8284 25.4776 3.59706 0.308645 67001.8 179574 1.10548e+06 -194800 217469 -65686.3 
92 1 29.1097 27.2754 3.58591 0.380955 404398 424618 1.10882e+06 -194451 138819 32243.8 
153 1 29.1477 25.3863 5.44027 0.484099 114304 354527 -312212 198028 231023 374276 
94 1 34.3863 27.2013 1.67475 0.212014 -294997 62467 442070 -197861 -692684 159179 
95 1 34.3309 25.4676 3.59277 0.181401 -233270 -815107 210730 -730789 -319385 475597 
96 1 32.5935 27.24 3.66814 0.282063 266278 258150 936929 -273035 -164971 202634 
2814 1 36.0059 27.116 3.41519 1.08516 -325128 -106164 221623 -271255 -417073 351875 
2883 1 36.1412 25.4799 5.36439 0.208586 -408147 -34981.2 140081 -228151 99077.2 -152423 
98 1 23.7163 30.7443 1.6402 0.225597 -523975 42431.7 737604 135140 -164563 79695.3 
97 1 22.0888 28.8912 1.62855 16.3789 546062 1.24383e+06 1.81059e+06 -11977.9 -102227 164745 
99 1 23.721 29.0253 3.6679 0.754562 -633759 -417515 216726 -573952 225430 282903 
100 1 22.0106 30.8491 3.55639 15.4277 220424 1.12102e+06 1.33336e+06 -212629 36924.6 145100 
101 1 25.437 29.0642 1.74224 1.04333 115968 -512857 513124 231001 -206381 98651 
103 1 27.3486 29.1419 3.57477 0.406781 -328282 -41142.5 572811 -286370 -398414 -250240 
104 1 25.5124 30.7596 3.5339 0.225613 -240866 -363860 575307 -45309.1 -220175 -124556 
107 1 30.8172 29.0907 3.42639 0.467715 321928 -8354.75 874719 -429910 -45462.8 36911.5 
108 1 29.016 30.8648 3.45819 0.292787 -432412 -677102 883836 -405310 -13967.3 288793 
110 1 34.3269 30.6907 1.64142 0.183477 -904353 -925036 853329 75563.7 79006.7 -139415 
109 1 32.7014 28.9597 1.66006 0.311626 -567052 -421779 309194 -432584 -23788 -188369 
111 1 34.3242 28.97 3.66625 0.495122 -491362 -599196 49465.5 135888 -165660 -172354 
112 1 32.6154 30.7151 3.52045 0.270043 -143544 -39203.4 372339 -249817 24143.5 108121 
2832 1 36.1227 30.76 3.54968 0.0905893 141023 -46276.9 -24764.6 16737.6 199383 288571 
2829 1 36.0455 28.9919 1.63388 0.297344 -280980 -314450 605187 133853 -374709 -124393 
174 1 34.3802 30.737 5.40779 0.259295 -139225 -449899 206137 -317315 34793.1 -153084 
113 1 22.0366 32.6281 1.67989 14.5864 -93096.1 493456 972463 -598007 4263.98 438531 
114 1 23.6543 34.3129 1.66425 0.218753 -930505 -738652 353251 -504348 -411605 -337933 
115 1 23.7694 32.5308 3.58567 0.152759 -179753 213719 936028 -293133 -106796 218483 
116 1 21.8808 34.2187 3.73768 16.6643 566010 1.27634e+06 1.38256e+06 -56214.5 -163190 -21738 
1353 1 21.8951 35.9577 1.63898 16.0151 137249 1.49562e+06 1.24064e+06 403116 -3957.61 -304016 
1355 1 23.6403 35.9834 3.49996 0.431614 -121109 436420 233822 130326 -88045.7 -174574 
1357 1 25.4221 36.0638 1.68763 0.331589 76158.8 -51380.4 333449 -121524 -242700 -46122.1 
119 1 27.2276 32.4934 3.52513 0.252796 -18840.3 69824.2 1.0103e+06 179835 27397.4 205597 
120 1 25.5019 34.2972 3.55572 0.201733 170601 -437133 627805 -196858 63778.6 -29048.4 
1359 1 27.1068 36.1376 3.48294 0.397475 -248032 -79316.5 363405 -403397 -224592 4249.65 
1429 1 25.3632 36.0635 5.33602 0.774844 -166053 -548207 467815 -154234 130241 19338 
121 1 28.9735 32.5458 1.6102 0.055916 210434 -79080.1 718540 -372695 41801.1 584341 
122 1 30.7108 34.3076 1.68229 0.271662 422881 302453 484804 -294326 -19661.4 3368.31 
123 1 30.7316 32.5266 3.64324 0.402625 392911 296993 1.05578e+06 -675108 -55881.5 21859.3 
124 1 28.942 34.3775 3.59973 0.230108 354613 562775 646374 -153548 226382 -115207 
1363 1 30.7287 36.109 3.4956 0.261426 36718.2 -280240 917616 -147920 255137 34107.1 
186 1 30.7639 34.3824 5.42895 0.312329 271440 -154643 325713 -135827 -73965.9 -167580 
1367 1 34.2291 36.1407 3.55848 0.167 -873667 -362997 -965763 220552 131505 -100640 
126 1 34.3338 34.3303 1.66918 0.120445 86469.1 -80577.1 132754 -84818.6 -142076 142871 
4323 1 35.916 36.0686 5.39871 0.591883 -354283 -338750 -89227.1 7920.83 -31935.5 -81460.2 
125 1 32.7069 32.4637 1.62802 0.739845 132035 -109368 542530 -196901 -53321.1 203181 
128 1 32.5146 34.2586 3.53276 0.327001 -90232.3 122129 474649 33171.4 -52181.5 -90733.6 
127 1 34.3036 32.5766 3.59104 0.269562 147265 12413.9 205486 185204 -181163 -127850 
2850 1 36.1136 34.4237 3.52698 0.411032 123372 196288 696516 -355817 168385 -244379 
1365 1 32.5508 36.1065 1.68948 0.229764 -366545 -326976 -21125.6 -217313 95945.8 -164402 
190 1 34.2936 34.2687 5.38548 0.270177 -679546 -1.12951e+06 496693 258215 36375.3 -168735 
1437 1 32.7175 36.0059 5.38774 1.24446 -407014 -696034 -48853.1 68451.3 428637 -40222.9 
2847 1 36.0509 32.4367 1.67076 0.491548 245826 107451 849861 211222 76689.9 232386 
131 1 23.9706 22.0628 7.46405 16.4236 360224 212873 1.502e+06 -97943.8 -235958 50551.6 
132 1 22.2775 23.7733 7.26322 15.0272 94653.6 -539044 417458 -109603 -73603.7 683516 
194 1 24.0386 23.9356 9.27672 0.616181 -1.24329e+06 -1.54281e+06 342292 -756227 -149303 135164 
133 1 25.6043 21.7876 5.47078 17.2067 1.20461e+06 168508 1.20592e+06 92902.4 -287178 -124369 
135 1 27.4609 21.7484 7.16364 15.8685 1.73213e+06 917926 1.60328e+06 36378.2 -231019 466944 
136 1 25.7408 23.6942 7.23547 0.545989 -228955 -183165 134759 -516000 76068 286288 
198 1 27.4738 23.826 9.18031 0.638841 238916 -308994 261951 266446 -86197.4 483140 
138 1 31.0073 23.6052 5.45614 0.544385 34689.9 166002 451766 -173900 195150 -13810.1 
139 1 30.9225 21.7792 7.43379 17.3124 2.02508e+06 676878 2.19596e+06 -190084 20255.4 -41880.8 
140 1 29.2244 23.7196 7.2534 0.628427 281094 -184088 794993 17418.5 95990.5 401934 
2865 1 36.0931 22.163 5.51125 13.3241 1.31376e+06 172862 733103 162454 181566 -84847.3 
144 1 32.5094 23.6657 7.44166 0.793786 150264 100385 887007 194608 -42727.3 -118297 
143 1 34.3347 22.1028 7.39372 13.0063 702821 248083 675568 479548 -55477.2 -303184 
206 1 34.5159 23.7142 9.282 0.423776 495958 -820009 268083 152816 -222723 -758985 
145 1 22.3248 25.3614 5.53135 14.9836 -67955.5 381793 269467 -40242 -271985 563732 
147 1 23.9726 25.489 7.3471 0.166934 -633039 -34331.8 -204610 -533329 -448451 51553.3 
148 1 22.0733 27.2497 7.27541 16.7251 258693 1.12236e+06 1.51233e+06 -552526 -24370.7 38154.6 
209 1 22.1141 25.4304 9.22372 14.5576 -295603 474622 879692 -361956 48520.1 94719.6 
149 1 25.7729 25.4748 5.49006 0.25364 -103648 -115120 300847 -416642 89261.8 274603 
150 1 27.5033 27.2835 5.60613 0.720029 302968 -537743 705641 -608759 213608 -125283 
151 1 27.5081 25.4407 7.35368 0.272727 185437 -326952 125594 200638 193041 522806 
152 1 25.672 27.2782 7.52999 0.645213 -102754 -560586 106944 -557847 -65403.9 208201 
214 1 27.4832 27.2696 9.27233 0.266392 -706970 107677 25225.2 -155650 -99649.3 226264 
213 1 25.6776 25.5907 9.25972 0.384487 -1.16112e+06 -1.04792e+06 -276878 -545701 145011 479882 
154 1 30.7415 27.4383 5.59147 0.893406 240728 533841 661854 134859 149918 9491.6 
155 1 30.7676 25.5524 7.4097 0.510271 -591335 -433568 172710 -75430.1 410981 -24513.3 
156 1 29.2115 27.3689 7.52492 0.56712 -1.07166e+06 -199954 -220078 186136 331332 -91293.3 
158 1 34.3375 27.2192 5.50602 0.142301 -43152.9 -2913.08 212941 -79482.2 -379584 30438.7 
157 1 32.4493 25.6064 5.62199 1.17089 -43084.4 36631.9 387648 -223712 83784.7 80226.3 
159 1 34.341 25.4485 7.38386 0.288106 817212 530753 698623 -99544.2 -75774.6 -113570 
160 1 32.562 27.3243 7.48812 0.212345 3095.68 328659 281938 -27354.7 91606.6 -135288 
222 1 34.4068 27.2011 9.20375 0.503423 203190 282950 721928 -85364.5 -37668.1 67216.2 
162 1 23.7756 30.841 5.48592 0.172088 -324212 162909 492773 25583.4 -51520 -72813.2 
161 1 22.0251 29.0448 5.44848 17.4944 396375 1.44612e+06 973546 -221940 329310 162395 
163 1 23.7446 28.9297 7.43832 0.474043 -521974 -265432 1.01672e+06 -194400 128786 -163977 
164 1 22.1287 30.7476 7.4285 14.771 -237893 678317 309237 177697 -470853 393268 
226 1 23.7113 30.7981 9.20444 0.444887 -1.045e+06 -308004 -221968 -696832 -406257 -60566.5 
165 1 25.565 29.0128 5.49542 0.103467 205251 20171.4 749619 -659254 -218625 -108858 
166 1 27.1968 30.8352 5.46782 0.150274 -251255 -503888 243129 234245 -214219 -76003.5 
167 1 27.3094 29.0386 7.37543 0.165123 -198794 -417097 209678 -590510 224617 -50282.8 
168 1 25.4372 30.7944 7.39707 0.181472 -89476.2 -12339.5 490579 -326325 152830 -50621.2 
170 1 30.8482 30.7064 5.49193 0.614784 195467 89036 1.06352e+06 -43706.8 118902 207886 
169 1 28.9283 29.1647 5.45209 0.936799 -710578 -746522 415517 -258188 -103152 -158140 
171 1 30.8495 29.16 7.51399 0.430827 -7598.51 -530325 -12224.8 -365240 287330 -162634 
172 1 28.9403 30.8602 7.3655 0.341116 216062 -63143.5 536975 -324064 27585.8 -88267 
173 1 32.5962 29.0846 5.5385 0.326374 -646435 -202755 623920 48111.4 220490 82747.2 
175 1 34.455 29.0067 7.30932 0.433395 43705.7 -108615 803718 78751.8 -49327.5 66724.8 
176 1 32.7755 30.7483 7.56161 1.26601 228063 -200529 143843 -298243 269421 205649 
2904 1 36.0968 30.8289 7.40383 0.260177 -322306 -508754 941065 170778 -22837.4 226194 
178 1 23.7457 34.3728 5.56032 0.312581 -915329 -713507 405412 159186 -294658 208281 
1425 1 22.0241 36.0384 5.53661 16.0969 -25170 831448 1.0719e+06 220243 -145569 -278840 
177 1 21.9686 32.4759 5.55326 16.9977 440964 1.09821e+06 1.18718e+06 345858 -96595.3 242006 
179 1 23.7588 32.669 7.41518 0.364857 -218504 -4321.88 16439.7 7349.51 -96365.1 165944 
180 1 21.8378 34.269 7.48534 19.7433 652345 1.4832e+06 1.81418e+06 26164.5 -53162.7 165026 
1427 1 23.6379 36.0396 7.46195 0.333565 -662061 -157564 753432 887788 -309396 -128095 
181 1 25.491 32.6577 5.59303 0.447052 -275214 -4674.29 315940 209035 -225915 186809 
182 1 27.3006 34.4036 5.51056 0.462351 -538836 -75674.1 718372 -543817 70595.4 48185 
183 1 27.0868 32.5574 7.44699 0.610909 85461.7 129393 379122 -203416 -339609 -117073 
184 1 25.4563 34.5362 7.37349 0.941683 -822037 -366669 162819 91284.2 -347157 -227485 
246 1 27.2181 34.4057 9.2323 0.410218 -84412.2 -71820.1 419186 -76070.3 -65909 -60813.6 
1435 1 30.735 35.9804 7.41435 0.362752 -30453.3 -369886 531450 -73277.9 89521.1 109793 
1433 1 28.9162 36.1002 5.46248 0.229132 -472985 -712325 524257 -344682 18769.7 -2416.89 
185 1 29.0166 32.6169 5.53611 0.286901 78236 208679 281720 -45213.9 -289489 177505 
188 1 28.9713 34.3355 7.40593 0.157248 -449469 -376846 95477.4 42435.1 -44353.7 -265850 
187 1 30.6942 32.6272 7.34128 0.656461 -191636 272829 700907 -414714 -92709.8 76961.5 
2919 1 36.1034 32.5338 5.47198 0.123807 -198179 379807 254873 184480 265871 -17373.2 
189 1 32.5474 32.5103 5.54546 0.317401 317341 344136 771525 -379039 88708.1 -309494 
191 1 34.4663 32.5326 7.34294 0.404204 -265946 -311948 655738 312315 238152 -32504.2 
192 1 32.5271 34.2297 7.33993 0.375628 200687 301874 657752 -156321 -161841 -213753 
1439 1 34.3255 36.0987 7.36397 0.264712 20907.9 -15858.7 474562 273395 -13803.1 154177 
254 1 34.3308 34.361 9.18314 0.640224 -43374.2 25559.1 813306 56178.4 -25753.7 -39105.3 
193 1 22.177 22.502 9.42807 26.421 342722 440124 933529 -414684 -189186 -198699 
195 1 23.9322 22.2058 11.2003 16.6888 129978 318458 146559 -245858 -9866.99 -279988 
196 1 22.1337 24.0787 11.2566 18.2393 185417 -56601.7 -112878 -451756 -212836 -382825 
258 1 24.0107 23.8873 13.0181 0.261195 -1.66236e+06 -1.9572e+06 -121593 -184276 -44174.1 -4641.94 
257 1 22.3659 22.2697 13.0789 28.8266 -195647 -63938.3 406815 -605615 168964 -304998 
197 1 25.663 22.0597 9.35903 16.2845 1.05213e+06 414326 1.12827e+06 12509.6 -414463 -86033.6 
199 1 27.354 22.0726 11.1681 17.3738 -504339 -592878 353610 -76853.1 127528 48798.7 
200 1 25.8094 23.8539 11.1774 0.326105 -1.01004e+06 -1.6098e+06 67353.6 150243 -53319.8 234374 
261 1 25.6417 22.1193 12.9788 15.0996 264272 -226080 38305.7 237172 567515 102471 
201 1 29.0269 21.9594 9.31444 15.8379 1.11712e+06 44394.4 1.43278e+06 50196.7 263495 -266269 
202 1 30.8189 23.6572 9.31771 0.370168 305873 242768 970375 -256864 422085 -56976.3 
203 1 30.9361 21.7826 11.2177 18.7371 1.47922e+06 549296 1.7367e+06 -422833 -9101.52 -87934.1 
204 1 29.0804 23.6505 11.1506 0.506953 -409765 -749445 112710 -457892 67942.9 -16930.8 
265 1 29.0563 21.9009 13.1115 18.3927 1.12478e+06 -66192.8 1.65625e+06 -518230 -280308 29696 
266 1 30.7253 23.5784 13.1147 0.767976 575246 -104209 351828 -414814 18303 374830 
205 1 32.8122 21.8527 9.41825 15.9623 1.6573e+06 807951 1.43273e+06 -196510 238449 -173620 
208 1 32.6151 23.5389 11.323 0.859482 211948 -138452 993377 155017 -191391 11526.7 
207 1 34.476 22.0325 11.3716 15.0471 311704 -191485 900543 153540 -191446 -344801 
210 1 23.759 27.0948 9.28987 0.889042 -852058 -522616 -54139.5 -342602 298400 76010.8 
211 1 24.04 25.5509 11.1595 0.431281 -1.10184e+06 -1.21889e+06 -606676 -794364 359833 289090 
212 1 22.0415 27.2198 11.0837 14.9783 154081 1.22026e+06 986353 -395696 266437 -43204.2 
274 1 23.9057 27.3789 12.9417 1.02435 -364761 -401446 157421 -346256 192786 -117284 
215 1 27.512 25.5054 11.1733 0.441739 -695145 -555806 133810 -101753 131590 199747 
216 1 25.6791 27.2026 11.2064 0.350957 -392320 -478281 156244 -720978 249335 128220 
217 1 29.2846 25.5486 9.426 0.923047 -948126 -546983 -151396 44525.6 334184 115504 
218 1 30.9142 27.3523 9.31679 0.220566 -762576 -307533 -444428 -84683.1 134332 -81971.1 
219 1 30.8828 25.4856 11.2865 0.277592 -62980.4 526036 -44130.4 -103014 -520693 -268600 
220 1 29.206 27.3913 11.1612 0.476537 -454591 -503866 90739.7 -543647 -199020 32490.1 
282 1 30.8844 27.3128 13.0805 0.232301 -28846 -310866 367142 -110026 -211091 -123765 
221 1 32.5569 25.4513 9.36782 0.376645 328124 112165 615421 -323682 -19066.8 -390029 
223 1 34.4693 25.3461 11.046 1.27769 -323361 -45283.1 345924 -40374.9 184891 -302232 
224 1 32.7317 27.1768 11.125 0.770407 252863 48192.2 79664.6 -248186 -193143 -30367.6 
286 1 34.3217 27.289 13.0922 0.425543 -161083 50715.6 751310 -313275 -164875 341184 
285 1 32.6081 25.569 13.0534 0.68535 228070 463504 767981 96390.2 -551873 204048 
225 1 22.0378 29.091 9.2928 15.3493 -154205 677013 437585 -471508 -134967 316767 
227 1 23.7277 28.9628 11.0786 0.664357 -268013 -44517.4 171399 -479729 -56511.4 258694 
228 1 21.9363 30.7436 11.1695 19.6414 529230 903582 1.46081e+06 -126424 96684.4 -145337 
289 1 21.976 28.8885 13.087 16.72 -12224 1.3669e+06 1.49347e+06 39364.2 -180586 -24764.4 
290 1 23.8135 30.555 13.1151 1.27014 -60139 5524.36 401680 4301.04 304854 730721 
230 1 27.232 30.7897 9.35528 0.117709 379362 222270 706075 -315580 190457 250327 
229 1 25.5829 28.9184 9.35905 0.414384 432761 233779 184958 -123385 142003 -320558 
231 1 27.325 29.1164 11.2507 0.212694 -423825 135479 242374 -286960 82670.9 234021 
232 1 25.4278 30.7839 11.1879 0.341449 -209981 9763.95 615930 368478 277397 93812.4 
234 1 30.91 30.8883 9.29885 0.355285 -173621 -302555 636922 -411795 228673 -429667 
233 1 29.1397 29.1312 9.37037 0.244709 -106649 -342269 5733.13 -115485 197956 -90169.1 
235 1 30.9034 29.0186 11.2413 0.227663 -128867 -184627 377050 -589852 -154842 -101865 
236 1 29.0932 30.784 11.2878 0.213291 280263 -148918 435226 -583888 -124238 -131505 
298 1 30.9273 30.8348 13.111 0.301851 -14965.4 -157911 779501 -329909 -10176 50636.6 
238 1 34.5175 30.8774 9.43511 0.527037 -116125 346901 729603 -352450 -166145 158044 
237 1 32.7002 29.1752 9.36973 0.586331 345068 -130074 205385 -114216 -105856 391665 
239 1 34.4525 29.0092 11.3069 0.211379 446674 147475 621137 -239489 -62222.8 298649 
240 1 32.6916 30.8562 11.2915 0.130126 514180 325765 100897 94565.5 179433 -251034 
242 1 23.744 34.3031 9.37734 0.454057 -512322 -234545 610657 413329 171498 -60731.5 
241 1 21.9675 32.5505 9.37716 17.1722 402333 1.16088e+06 1.37344e+06 19007.6 -68305 300242 
1497 1 21.926 36.1044 9.50438 17.1405 680348 1.43152e+06 1.36805e+06 -6527.09 -168357 385507 
243 1 23.7064 32.4358 11.2584 0.718151 -704998 202335 404482 169739 300506 -57156.4 
244 1 22.1502 34.4784 11.3146 13.391 -31565.2 860955 382830 -282493 -227796 297465 
245 1 25.3565 32.608 9.33637 0.405231 -363272 -142326 333033 347786 -5361.11 -97291.8 
1501 1 25.4454 36.149 9.37668 0.308095 -162334 122437 347321 61153.5 319586 -335334 
1503 1 27.3022 36.0891 11.203 0.178818 -627946 -613657 137056 253684 240517 219554 
247 1 27.1809 32.6299 11.2369 0.183974 319081 403181 840263 72615.2 -172738 -164418 
248 1 25.4673 34.3324 11.3146 0.388218 170911 309259 703723 438823 -392940 -146474 
310 1 27.1834 34.4094 13.11 0.4009 -31792.2 -30739.1 599460 205217 -35026.4 -43831.1 
1505 1 29.071 35.9535 9.37102 0.747866 -824135 -858710 -70659.4 309661 302528 105829 
249 1 28.9696 32.5629 9.33201 0.160551 340124 453107 852258 -202866 8907.1 -83908.4 
313 1 28.9287 32.5411 13.1224 0.419735 278125 228933 914964 -480516 -191577 34361.4 
314 1 30.6881 34.3326 13.1055 0.330195 187859 -240181 120159 75923 -1610.61 -11629.4 
250 1 30.748 34.3558 9.34417 0.180143 -584441 -450365 534318 314746 65822.4 323503 
251 1 30.7731 32.5875 11.2233 0.0954409 12955.4 -163954 460611 -415622 -103329 -19546.3 
252 1 28.9891 34.3791 11.196 0.17597 -324157 -350372 -151923 353714 176638 415091 
1509 1 32.5393 36.0122 9.37618 0.293184 -130958 91601.5 1.05798e+06 89440.3 16913.8 -4336.63 
4485 1 36.1156 35.9866 13.0714 0.56689 -147465 -107674 55999.6 163371 -184033 -62259.5 
317 1 32.5726 32.5609 13.1035 0.209117 -124163 -478561 171369 -723025 48751.4 -67262.3 
253 1 32.6228 32.5431 9.33867 0.210999 422419 -38267.1 1.06975e+06 -572970 203527 -93095.7 
318 1 34.2272 34.3977 13.1123 0.732793 -631472 -689962 -738672 -135772 -256296 -492729 
256 1 32.5462 34.2716 11.2786 0.430131 34116.7 28837.2 258975 -182885 -353234 201247 
255 1 34.5372 32.7024 11.3711 1.2943 -178168 -107183 387512 -475038 27867.8 -250976 
1511 1 34.4186 36.0233 11.1706 0.348225 -234601 -333463 246473 -260423 -125744 364473 
4404 1 36.1404 36.0606 9.29864 0.334953 -466387 -277705 8161.95 -255185 172185 -324055 
259 1 24.1138 22.0539 14.8286 13.2261 10976.9 -848.109 892479 -624469 182029 209748 
260 1 22.2838 23.8031 14.9494 15.9283 784996 653912 1.10036e+06 -80176.8 190556 -382144 
322 1 24.1038 23.9172 16.9565 0.593487 -627005 -991420 1.03331e+06 -388115 56553 195560 
262 1 27.4577 23.8533 13.128 0.419817 -811430 -565400 -35421.2 -13959.3 -258117 -22076.9 
263 1 27.2983 21.9099 15.2411 15.7058 967089 222630 1.27639e+06 -28650.3 491544 -289560 
264 1 25.7005 23.7773 14.928 0.493553 -90535.3 -745098 347362 -421288 77694 141123 
325 1 25.6248 21.9182 16.9305 17.0281 803884 452555 795829 -41131.1 705691 1655.94 
267 1 30.8261 22.085 15.027 14.571 473723 -408678 547430 -312488 -244427 218866 
268 1 28.9727 23.7125 15.0268 0.731644 -340844 -436752 517796 116947 -24443.4 -75565.1 
269 1 32.6198 21.8655 13.1835 18.7022 1.1362e+06 436606 943328 -35218.9 140894 275856 
270 1 34.371 23.699 13.1614 0.20897 598747 -458127 230433 -380630 -216981 -590297 
272 1 32.54 23.7115 15.093 0.295393 -915641 -922730 678547 -659647 322416 -247029 
271 1 34.4316 21.9644 15.0106 16.6275 1.42169e+06 247463 1.25931e+06 -225841 -222184 119995 
273 1 22.3056 25.5904 13.1271 14.0816 -265332 424176 558961 -133566 -163349 -284321 
275 1 24.0185 25.6564 14.96 0.436452 -367699 547032 499148 -553574 -47556.1 -66378.1 
276 1 21.9526 27.2699 15.1303 18.8384 697461 1.42426e+06 1.6328e+06 -309380 -138069 220271 
337 1 22.2984 25.487 16.8927 15.7856 -3999.09 730292 1.27932e+06 62930.1 -59436.4 232026 
277 1 25.7932 25.5875 13.1881 0.467719 -594904 -867904 135290 -458694 145255 306607 
278 1 27.378 27.3229 13.1745 0.160457 -1.04735e+06 -1.301e+06 721433 -10997.5 -33886 45762.2 
279 1 27.444 25.6073 15.151 0.4493 -683922 -327411 -202322 82859 -46056 -144899 
280 1 25.673 27.3914 15.0803 0.249715 -360908 -667725 38625.1 -318094 12312.6 290411 
341 1 25.7038 25.7213 16.9278 0.568736 -104054 -203329 557309 -831363 159169 218668 
281 1 29.0634 25.631 13.1632 0.659983 -566215 -251516 410500 -265325 -203458 -79304.8 
284 1 29.1936 27.303 15.0808 0.201809 -222785 -480912 417909 -533337 -137707 -141134 
283 1 30.7945 25.3698 15.0011 0.67815 -88349 308203 726467 488489 -205191 89624.3 
3030 1 36.0687 27.1506 15.0503 0.464614 469098 117561 311444 253227 412128 -223109 
3027 1 36.1054 25.4128 13.2076 0.295889 364448 134158 834020 -55502.6 41995.8 68789.6 
287 1 34.2721 25.3564 15.0069 0.516936 -159910 230806 371177 -487238 402101 -417676 
288 1 32.5646 27.3378 15.0671 0.393442 107321 -36812.5 239972 695458 37405.4 155812 
349 1 32.6064 25.4926 16.8626 0.330298 -126670 -174457 292400 -336414 250354 -11157.1 
350 1 34.4277 27.1966 16.8687 0.415921 -275333 -17095 537766 -67905.9 260298 220824 
292 1 22.0981 30.7585 15.0917 14.9835 484705 1.30634e+06 1.56663e+06 85618.3 -24489.1 208291 
291 1 23.7506 28.9369 14.867 1.6532 -265518 -157528 130706 204277 34788.6 536680 
296 1 25.5772 30.7221 15.1138 0.684763 313562 23011.8 143384 -98896.3 131607 423589 
293 1 25.7076 29.0547 13.1639 0.695511 -1.10027e+06 -1.23403e+06 334054 -19352.2 310797 141769 
294 1 27.196 30.8803 13.18 0.356073 -665933 -1.01426e+06 689162 -588789 266289 92377.5 
295 1 27.4453 29.1215 15.0509 0.361387 -680551 -704418 -84912.7 -351493 202691 8775.65 
297 1 29.0464 29.1143 13.1681 0.256969 173339 330102 293572 -278655 202061 242834 
299 1 30.9205 29.0086 15.026 0.312896 -264116 -268835 736926 153244 144101 30904.8 
300 1 29.0347 30.8883 15.1421 0.290539 182087 200025 773180 -705857 113873 44722.9 
362 1 30.939 30.8868 16.9093 0.202857 257124 335326 995757 -513425 123915 234816 
366 1 34.4754 30.8782 16.8842 0.337233 549745 425852 374326 -167617 -285227 142262 
304 1 32.7154 30.815 15.0947 0.280464 -341562 -119615 440829 -345278 -1997.39 -132332 
303 1 34.4531 29.0762 15.0682 0.227282 136444 137051 441704 406365 -87469.5 42132.3 
301 1 32.6344 29.0609 13.1722 0.146514 -422017 -158315 487988 261866 191106 230706 
302 1 34.4761 30.8107 13.1359 0.202405 307391 54253.7 267142 -443617 58339.7 23079.7 