ITEM: TIMESTEP
7000000
ITEM: NUMBER OF ATOMS
5780
ITEM: BOX BOUNDS pp pp pp
1.8683931473644975e+00 7.0431606852651058e+01
1.8683931473644975e+00 7.0431606852651058e+01
-1.9229519242186193e+00 7.4222951924234152e+01
ITEM: ATOMS id type x y z c_csym c_2[1] c_2[2] c_2[3] c_2[4] c_2[5] c_2[6] 
3 1 24.083 21.9404 -0.20784 14.1138 404432 288319 901053 -68930.8 162095 346785 
4 1 22.3135 23.6913 0.0591557 14.0258 160217 441720 958657 -153316 -87885.4 -396670 
66 1 24.0819 23.9213 1.78004 0.795832 -649309 -521157 408299 -921659 -312322 287449 
1 1 22.2416 22.0938 -1.82502 32.052 821437 612614 1.05503e+06 90285.5 -331819 -60621.1 
2 1 24.0287 23.8398 -1.83648 0.443832 -518163 -536810 72982.5 -962577 133546 152673 
7 1 27.3519 21.9266 0.0830313 15.1802 1.15918e+06 397907 1.46444e+06 164215 135822 -80850.1 
8 1 25.7582 23.7812 -0.0621211 0.383661 -363157 -210750 -89962.9 -183630 -181720 100651 
11 1 30.8319 22.0379 -0.093341 16.628 360182 314166 437663 175830 484353 -109945 
12 1 29.0658 23.7711 0.0594523 0.491721 192720 -179982 761489 313178 26841.7 155353 
74 1 30.9786 23.8516 1.74231 0.866849 -48645.8 -564620 457062 -261374 -46457 106407 
73 1 29.2237 22.0347 1.84169 15.7566 1.20977e+06 354506 534052 -149336 -258494 115173 
9 1 29.0255 21.854 -1.85703 15.8009 1.02445e+06 731187 895919 100201 -475391 -47418.3 
16 1 32.6585 23.8112 -0.0972498 0.355564 28705.7 116771 119055 -201636 559965 -286106 
15 1 34.3514 21.8484 -0.0630564 18.8873 793629 70722.9 929260 -412484 58988 203884 
78 1 34.3945 23.7562 1.74774 0.615497 -137330 -400475 663815 248104 -4533.69 216138 
77 1 32.5532 21.9851 1.8093 16.9724 1.18379e+06 397780 1.37803e+06 241533 -142997 81356 
2724 1 36.0822 23.5129 -0.0215799 0.960259 -537850 -598201 -181077 -253856 361801 101408 
13 1 32.4718 22.0546 -1.84689 14.9218 590627 185121 733169 -200090 226949 -208262 
14 1 34.3494 23.6411 -1.86713 0.400013 -423417 -306275 576625 -77522.5 279751 198186 
19 1 23.8826 25.6245 -0.0718271 0.223089 -321600 122124 -302549 -385509 310233 -139626 
20 1 22.0091 27.4992 -0.13722 14.5636 259950 656877 667877 -299539 208688 295858 
81 1 22.0557 25.7008 1.55952 13.2814 543271 1.16554e+06 1.25027e+06 -269562 515246 44302.3 
82 1 23.8801 27.426 1.73544 0.365719 -285181 -114090 467812 -469106 74588.4 -485.422 
18 1 23.8302 27.526 -1.84081 0.403533 -273169 211022 -111910 -311683 -80892 18084.6 
17 1 22.0961 25.6734 -1.83611 16.4732 510991 1.05035e+06 798603 -231046 -112918 -67023.6 
23 1 27.4139 25.5918 -0.0512076 0.184054 -405015 -335553 25939 -281077 185497 99363.2 
24 1 25.639 27.4754 -0.0797734 0.24374 -407769 168604 -213809 -111423 315733 114170 
85 1 25.7431 25.618 1.81102 0.239463 -812785 -1.11071e+06 108378 -266579 178484 160568 
86 1 27.3925 27.4239 1.78973 0.237214 -628965 -551942 -89444.4 -326092 538838 139781 
21 1 25.603 25.5609 -1.8996 0.216976 -836759 -907747 -536851 -930477 80904.9 -166339 
22 1 27.2593 27.3761 -1.88735 0.343725 -386791 -196627 195888 -79112.3 148558 -3776.64 
27 1 30.8416 25.5923 -0.0428248 0.122499 258559 10033.4 599530 -196403 44579.8 362594 
28 1 29.0856 27.3988 0.0700277 0.354319 -289122 -55573.1 123059 -229024 570081 50939.3 
89 1 29.1019 25.6353 1.87173 0.183032 -186530 -23327.7 41587.2 -127893 231399 184027 
2739 1 36.029 25.4369 -1.86415 0.288313 -974553 -266803 181752 130440 -7837.23 6968.22 
32 1 32.5457 27.3266 0.014123 0.224694 -318274 -95730.1 540302 -326981 -268184 217132 
31 1 34.3678 25.613 -0.0488519 0.40757 -35495 -162316 67500.7 -280954 357645 81044.9 
2811 1 36.1395 25.4677 1.84637 0.130671 -211144 402269 576501 -534475 106708 174876 
94 1 34.3555 27.3949 1.69883 0.977453 -768392 -933511 -51558.4 -292803 -139079 6640.68 
30 1 34.399 27.267 -1.91178 0.1565 -5506.39 -519271 257427 -79873.1 40841.5 -132112 
35 1 23.8109 29.2223 -0.0190034 0.165093 -180232 -485569 170271 210688 -362.46 8684.93 
36 1 21.9833 30.8232 0.0694582 15.3979 -40691.6 866418 1.13427e+06 142798 -144884 -11039.7 
34 1 23.7903 30.9295 -1.86749 0.232629 -306606 31766 642399 245526 -83977.8 118530 
38 1 27.3216 30.9921 -1.78952 0.522099 -286370 -557075 565900 -207459 -186251 215530 
39 1 27.3438 29.2693 0.0832611 0.348445 -113884 -363947 -201618 -387801 -282602 247956 
40 1 25.5171 31.0912 0.0503185 0.373513 24642.9 344806 341227 -110003 -98582.8 -223963 
37 1 25.6105 29.2713 -1.86186 0.247859 -92019.1 -389220 657369 -139651 21298.1 158835 
43 1 30.8167 29.1884 -0.0846 0.235793 128115 -158309 620784 -239747 192953 170587 
44 1 29.0805 31.0093 -0.0116808 0.135517 -460474 -571143 -86733.2 -306749 -308148 58970.1 
105 1 29.0588 29.2249 1.86716 0.193334 -420050 -226746 6484.97 -371053 53557.3 -5519.55 
106 1 30.8675 30.9162 1.85632 0.0958604 -351470 -478079 142821 -292964 16413.9 167372 
2760 1 36.1335 30.8343 -0.0764289 0.203628 -408274 -833037 360259 598346 -18869.9 -187386 
2757 1 36.1009 29.0344 -1.80876 0.490501 -299407 -139550 28866 -410165 -53716.9 -211279 
47 1 34.3103 29.0715 -0.0479765 0.225736 -76547.9 -178278 -151509 -154339 22716.1 476700 
48 1 32.5799 30.8728 -0.0582925 0.190017 49016.9 -358403 104737 156568 96203 -164611 
2829 1 36.0946 29.0067 1.87797 0.224334 -275900 -636827 -77704.2 -684619 127548 9418.72 
45 1 32.6221 29.1143 -1.91012 0.202529 309765 429010 660527 217598 -65120.3 -82825.3 
51 1 23.596 32.7025 0.0519747 0.441988 -153240 -7935.93 332267 -49809.3 -382722 96979.2 
52 1 21.9201 34.6054 -0.0340083 13.0583 -146396 916951 685048 -317600 100972 -158347 
50 1 23.6051 34.4126 -1.85831 0.353275 -236561 230674 771902 -344704 219489 -19512.8 
49 1 21.9732 32.5822 -1.80107 14.9684 -60354 1.15699e+06 1.15231e+06 -65836 -238680 -53492.4 
1287 1 27.2856 36.1182 -0.0124892 0.184561 -103432 -379093 139443 89766.3 -44387.2 295658 
55 1 27.3274 32.8021 0.0217499 0.25954 101411 -150998 488575 98672.1 4904.04 -351791 
56 1 25.4495 34.4304 0.0524155 0.186726 58720.7 78500.3 478071 -3508.39 -106196 106879 
118 1 27.3226 34.5102 1.80456 0.205312 90262.5 -120753 101598 -10457.1 -150072 68945.1 
1285 1 25.4192 36.0877 -1.89781 0.292857 93939.3 -13030.5 649792 41891.2 104760 -40695.9 
60 1 29.1772 34.5431 -0.135123 0.475442 54018.8 -252810 687066 -91069.8 191909 -54676.9 
59 1 30.8777 32.6629 -0.0244935 0.0947644 -845618 -141988 173553 -77581.6 82454.7 210494 
121 1 29.1896 32.7241 1.79717 0.241689 87841.9 164812 87664.1 164817 130227 -272607 
57 1 29.102 32.6816 -1.91004 0.181127 158873 129804 330039 -280428 -158802 126451 
64 1 32.7002 34.3618 -0.0742242 0.165262 -223679 104318 246191 -226211 24641.8 86370.6 
63 1 34.5537 32.686 0.0155114 0.854486 -699501 -1.21656e+06 -529990 -63862.9 5785.72 -187507 
125 1 32.6331 32.5921 1.77771 0.443142 -403890 -767099 94823.3 86583.6 9664.88 239996 
126 1 34.4672 34.3108 1.79712 0.374153 -170550 -242128 -170208 318929 244417 -505022 
62 1 34.4232 34.3432 -1.90142 0.105991 -699973 -263582 -380380 284365 -266404 251532 
2778 1 36.1255 34.4034 -0.0763135 0.188428 -1.39698e+06 -1.34536e+06 -287430 -493767 223665 108850 
61 1 32.6863 32.5086 -1.91504 0.397529 -282705 -360780 578206 481172 88857.6 382472 
65 1 22.6659 21.988 1.90798 26.4308 604177 597433 997182 -293259 -359181 197158 
67 1 23.9711 22.2528 3.88575 14.3873 -395468 332267 -148845 -311155 -1.05397e+06 -90626.9 
68 1 22.2035 24.0532 3.65941 13.221 409825 856037 1.20896e+06 -395703 -142601 236063 
129 1 22.1138 22.599 5.60907 29.5905 620907 647400 909902 -313854 58013.4 197353 
130 1 23.9061 24.1972 5.61595 1.41319 -645648 -312054 281386 -268807 -157083 -70892.5 
69 1 25.5864 21.9755 1.93287 15.1075 1.08524e+06 347379 857349 126137 -85221.6 -22617.3 
70 1 27.2917 23.8356 1.91315 0.468026 -520616 -464258 -389365 392026 206688 27536.6 
71 1 27.3184 22.0345 3.73102 16.7411 1.14462e+06 412146 1.32191e+06 -63065.2 -264888 179337 
72 1 25.6949 23.9728 3.70825 0.324641 -518914 -492919 -170580 -344858 394137 357931 
133 1 25.5154 22.2265 5.6169 15.8444 123660 391885 -356550 -110191 -442965 24596.8 
75 1 30.814 22.0706 3.73245 16.3911 522527 80009.8 1.02266e+06 118194 -464789 -137514 
76 1 29.1102 23.7715 3.72373 0.2585 -73038.5 -585271 704728 257396 -309704 -180387 
2865 1 36.1431 21.9765 5.57932 17.2357 1.28103e+06 -110425 791209 -77207.5 113641 -20914.3 
2793 1 35.9878 22.0247 1.95218 14.581 458252 -533363 610367 358112 -36915.3 133655 
80 1 32.5853 23.7555 3.85015 0.399135 -252353 -762675 942975 496006 -283825 -168325 
79 1 34.2385 22.0762 3.72616 15.3668 268735 -190439 1.14159e+06 261712 164133 -108217 
142 1 34.3156 23.7883 5.68215 0.328749 -585354 -135611 -320396 228565 -150449 -227717 
141 1 32.4672 21.9275 5.66608 17.4212 1.3756e+06 485686 1.00134e+06 145885 -145501 -120762 
2796 1 36.0694 23.6994 3.82845 0.495011 229224 -452750 372013 -409102 178634 -10581.3 
83 1 23.9433 25.7498 3.6992 0.415331 -550217 -711573 728241 -209216 166348 107751 
84 1 22.0615 27.2399 3.69316 15.4114 58581.5 905799 1.16095e+06 321127 -171149 151315 
145 1 21.8756 25.5205 5.66711 17.5666 640925 1.55561e+06 1.35289e+06 483965 51549 -61252.5 
146 1 23.7882 27.3699 5.58242 0.386969 134763 688383 -95906.5 -17823.9 -161289 81442.8 
87 1 27.4722 25.6509 3.72326 0.174186 -753140 -82792.2 -226163 -163458 52181.6 -125505 
88 1 25.6635 27.3953 3.69922 0.141794 -157418 -321934 683103 -429162 162580 192855 
150 1 27.5166 27.4804 5.6758 0.531442 -448768 -842305 272211 -827358 154693 42949.3 
149 1 25.8649 25.7215 5.68609 1.17737 -272090 -483810 21065.1 -348513 50305.1 38187 
90 1 30.8264 27.3752 1.96741 0.230175 -772515 -77277.7 199098 -361735 105247 -108875 
91 1 30.8756 25.5171 3.79597 0.213649 -218995 59196.6 452452 -178972 56667 141000 
92 1 29.1997 27.4786 3.80005 0.342957 -142982 38103.6 32007.6 7076.41 597743 -26401.5 
153 1 29.076 25.5867 5.61058 0.365146 -523112 -460508 559471 -172589 36098.1 23559.6 
93 1 32.5807 25.6333 1.89467 0.306972 -373426 -153818 104493 -404781 -177056 -54789.2 
2883 1 35.9886 25.6454 5.53556 1.12675 -831443 -531716 619226 53300.8 28458.7 -31633.5 
95 1 34.2975 25.6197 3.69929 0.402654 -31218 624856 469084 334991 -488951 -175632 
96 1 32.5757 27.2933 3.79941 0.268989 -444952 -669595 225171 53113.2 -314486 9447.7 
98 1 23.705 30.9437 1.90185 0.126932 -366484 175090 246724 55526.3 -262025 107884 
97 1 21.9806 29.0516 2.00217 14.1194 299425 1.24745e+06 1.36658e+06 133141 -241496 293356 
99 1 23.7897 29.0954 3.72854 0.16744 -439581 426266 97005.2 -45971.6 102127 246268 
100 1 22.0126 30.9564 3.85315 15.5213 -101850 358352 709069 -626231 -191328 419373 
161 1 21.9571 29.0928 5.47479 15.6675 425442 1.14749e+06 1.53781e+06 37286.3 311621 262311 
101 1 25.5199 29.1862 1.92968 0.267113 -236352 -401029 224963 -470774 172262 38566.4 
102 1 27.2592 30.9876 1.9006 0.224196 -42682.2 -217253 121063 197535 -75246.1 -111386 
103 1 27.4076 29.1776 3.73625 0.227469 46098.9 22279.5 191545 -206266 51744.2 563.727 
104 1 25.4582 31.0103 3.71752 0.353807 648452 227050 25921.3 -93239.3 -127249 91947.7 
165 1 25.5166 29.1862 5.63801 0.186523 346099 103172 531718 -413009 -47767 349805 
166 1 27.262 30.9046 5.59808 0.362074 230898 20770.7 420848 -89441.8 126295 -111371 
107 1 30.9802 29.2533 3.76816 0.488532 132627 -97011.5 70328.6 -256535 295839 -380298 
108 1 29.0791 31.0326 3.74432 0.357163 -401248 -404677 532128 184646 65674.1 -152119 
170 1 30.9914 30.9458 5.5889 0.375684 79954.8 -332240 662664 210021 66976.3 -317768 
169 1 29.1168 29.2065 5.67526 0.177334 -171118 -139537 592819 -484351 67506.6 -216730 
109 1 32.632 29.0444 1.97409 0.597186 -526054 -181178 180150 135988 410072 -150230 
110 1 34.376 30.8835 1.89783 0.205985 -371973 46514.1 398930 -4859.44 372493 -12898 
111 1 34.3565 29.0101 3.8059 0.464975 -616609 211289 105554 34624 52445.6 -34671 
112 1 32.7368 30.9884 3.68983 0.607867 -1.14947e+06 -674420 -340926 -520306 245376 102466 
174 1 34.3518 30.8902 5.6604 0.281723 -861306 -1.10053e+06 128020 -71289.7 -83448.6 189095 
173 1 32.7178 29.2058 5.65745 0.51637 -275765 390.029 666327 -101895 -50822 -87045.6 
1355 1 23.6683 36.1403 3.73957 0.213918 -202425 -214506 -80436.1 125744 120855 168138 
114 1 23.5909 34.4476 1.89027 0.252564 -250140 -47582 351711 -49852.6 -55086.4 -276827 
113 1 21.8969 32.6693 1.98963 18.1338 130377 1.07723e+06 1.17739e+06 -128609 -76195.7 -19512.5 
115 1 23.5782 32.7222 3.87405 0.566663 -811046 -100973 415145 -209929 -89615.3 89885.4 
116 1 21.8059 34.4164 3.85887 18.8047 440994 673963 1.0235e+06 219445 100515 -85962.5 
117 1 25.4722 32.7217 1.96902 0.207313 520274 -442814 180084 17147.6 46560.2 51466.9 
119 1 27.4573 32.7359 3.79795 0.685421 204554 -365882 695609 474802 3508.72 -239985 
120 1 25.5311 34.4914 3.7243 0.22419 498606 7186.14 -61897 181617 41950.3 -22837.8 
181 1 25.4662 32.7274 5.61668 0.221875 -22147.7 129872 612834 101258 -149838 -22300 
182 1 27.3277 34.4444 5.60254 0.163305 323400 -156134 451389 -102909 -74387.6 -156643 
1429 1 25.5132 36.1198 5.66042 0.238536 -819080 -830910 536966 -591179 89676.4 158051 
122 1 31.0118 34.4691 1.92159 0.54129 -219779 -71800.8 477993 -101299 125224 -83498.7 
123 1 30.9402 32.6702 3.74517 0.127556 90921.6 -210238 243739 86954 85681.5 50384.7 
124 1 29.177 34.5222 3.67309 0.292189 -22369.7 38311.2 453913 -199735 158497 -125732 
186 1 30.9417 34.3631 5.64018 0.210804 -573539 -337084 665998 -306756 -113496 -188406 
1433 1 29.1345 36.13 5.62674 0.185903 303086 197851 328389 -116858 -258451 16159.8 
2847 1 36.1499 32.5818 1.88537 0.106088 -577063 -303838 254962 130002 -329844 -34809.2 
127 1 34.4566 32.5945 3.86185 0.463446 -383529 -413480 265594 -723023 78589.2 210253 
128 1 32.7651 34.4749 3.70275 0.416389 -123456 260016 236001 -285274 -344745 -115913 
190 1 34.3828 34.5896 5.65684 0.988519 -353356 -594850 -88396.5 -154022 -180340 161679 
1437 1 32.5673 36.123 5.63625 0.511062 -1.06401e+06 -990566 401991 589680 -30151 -152249 
1367 1 34.5143 36.1471 3.78862 0.207402 -337050 -712551 262474 -165657 141156 416367 
131 1 23.9221 22.1947 7.40304 14.0962 184407 650021 464535 -221561 937697 52938.1 
132 1 22.2124 24.0306 7.68519 13.9904 297506 917016 1.03315e+06 -177528 -296067 -276256 
193 1 22.7225 22.0184 9.45027 25.7613 375785 642845 86511.8 -198498 -28550 -127099 
194 1 23.9696 24.1086 9.39828 1.41682 -1.02051e+06 -681985 38517.4 -424768 -63025.2 232949 
134 1 27.4379 23.865 5.71774 0.328773 -624538 -1.0466e+06 444503 81742.2 132463 225258 
135 1 27.2063 22.0253 7.5001 17.8061 1.23748e+06 450740 1.29331e+06 69110.9 172117 231812 
136 1 25.6749 23.9815 7.4979 0.28309 -9722.01 -675760 360382 225049 364484 102949 
197 1 25.5333 22.2445 9.45986 13.4691 1.06356e+06 203047 787158 197890 200109 131626 
137 1 28.9725 22.0001 5.71172 17.9587 845344 -23902.2 1.3876e+06 33672.6 43973.1 -30721.4 
138 1 30.6994 23.7193 5.71599 0.414503 191205 -258412 581580 -65708.4 -52039.9 -22574.3 
139 1 30.7203 22.0046 7.6748 16.5189 1.30314e+06 373679 1.53356e+06 67143.8 103094 -18398.6 
140 1 29.0201 23.7888 7.65468 0.22443 125037 -303764 551018 180059 1812.2 -58659.5 
2868 1 36.0599 23.681 7.37811 0.683422 -640642 -124786 160086 59495.3 163495 -289810 
144 1 32.6392 23.6154 7.51593 0.656627 270785 121340 828755 -294826 -691.249 -71422.4 
143 1 34.3935 21.8257 7.3933 16.728 1.07912e+06 417448 1.42078e+06 -38297 -167613 45242.9 
206 1 34.3272 23.5986 9.39502 0.410483 224078 -297327 1.07429e+06 369719 -108757 408418 
2937 1 35.9531 21.8957 9.37932 14.4906 739403 96684.2 1.22651e+06 601266 -3520.78 -163623 
147 1 24.017 25.7542 7.5614 0.714284 -692262 -1.52506e+06 227882 -230288 -89341.7 239792 
148 1 22.2009 27.3515 7.54124 14.4554 115512 1.26422e+06 1.59515e+06 90864.5 195166 -29552.3 
151 1 27.456 25.7253 7.60347 0.303887 -237305 37103 224246 -574164 -397163 30556.5 
152 1 25.4899 27.5332 7.44524 1.21093 177810 -614658 568927 -752126 -12987.6 246240 
154 1 30.8497 27.3266 5.78649 0.248825 485842 778138 875335 134304 -108379 -123209 
155 1 30.8456 25.4714 7.67396 0.236717 215491 460974 786189 -600501 281953 -121042 
156 1 29.1256 27.4322 7.66071 0.145727 -699206 -62244.8 241688 -542972 -223856 203844 
218 1 30.7923 27.3813 9.48509 0.295079 -393342 63218.8 466360 -649713 -179111 79544 
217 1 29.1168 25.5906 9.49516 0.232513 -85417.8 218443 321167 -880205 186190 139021 
2886 1 36.0271 27.2261 7.70526 0.573143 -453086 -631138 -116723 207428 107825 -126168 
158 1 34.2717 27.2122 5.706 0.447108 -361040 -774148 308409 482753 -66605.1 96881.8 
157 1 32.5485 25.466 5.70849 0.137755 -448418 -368261 -15650.4 104742 -426809 -208098 
159 1 34.2391 25.4998 7.52622 0.311641 -384018 -652908 114480 162267 -293365 -47956.9 
160 1 32.5672 27.1833 7.65208 0.469679 -475678 -356699 291819 157775 -10331.1 -253958 
2955 1 36.0807 25.4382 9.42619 0.219106 14600.6 214606 558361 113634 192442 341109 
162 1 23.682 30.9261 5.69413 0.24839 52036.9 -24586.7 205504 -33763.4 -244051 328718 
163 1 23.7295 29.2746 7.53038 0.536865 -417079 -530428 897690 197714 268172 86327.8 
164 1 21.9761 30.8897 7.64558 17.2887 77990.8 1.03959e+06 1.42444e+06 421505 21258.3 -105050 
226 1 23.8087 30.8966 9.45997 0.339846 193661 286106 564278 100381 -140941 -140485 
167 1 27.3925 29.2075 7.54408 0.222685 -22978.1 -393044 126480 -110236 134425 -203292 
168 1 25.559 30.9526 7.58192 0.147866 -406749 -113683 266358 -373314 -91918 -117364 
230 1 27.2629 30.8576 9.42221 0.506231 -858886 -666842 499181 252309 -61805.6 -88038 
171 1 30.8817 29.1661 7.67494 0.321627 143288 200520 -79013.7 -151875 -747245 -88553.9 
172 1 29.0792 30.9584 7.59034 0.171624 -372781 -463677 477922 -485565 -127670 74070.6 
234 1 30.8136 30.8915 9.46847 0.265546 -496059 -785995 28149.1 -183098 43127.4 159153 
2973 1 36.0969 28.9644 9.42061 0.220796 -223016 -580329 -193160 -29202.1 -15663.1 -666756 
2901 1 36.0104 29.0853 5.74763 0.525573 68712.5 34350.5 352496 329863 -189030 -236873 
175 1 34.3548 29.0066 7.63185 0.237203 -576169 -311424 -36446.5 426425 8818.49 -27510.7 
176 1 32.7935 30.9069 7.67253 0.972132 -84554.8 -705201 -343413 165941 -96135.3 -172888 
237 1 32.5019 29.0841 9.39485 0.793301 -727913 -351941 -121788 -395543 -367222 299875 
2904 1 36.0891 30.8335 7.52951 0.229368 325056 -165129 427549 -333935 -74338.8 -211327 
178 1 23.8458 34.5495 5.70126 0.900711 -681108 -828238 242165 -409514 186328 -121954 
177 1 21.9115 32.7728 5.72845 16.874 453823 1.19988e+06 706645 97836.5 131149 -134281 
180 1 22.0272 34.4226 7.59014 16.4765 -286822 469660 1.2045e+06 -42441.6 -176945 -466140 
179 1 23.7561 32.7034 7.50767 0.298519 109681 214223 857148 332795 -43240.9 -206203 
242 1 23.7912 34.4481 9.4082 0.308809 76332.5 637639 319225 13079.6 175325 158645 
183 1 27.2701 32.6535 7.44672 0.600017 99653.4 264025 801276 -5241.49 226647 85446.7 
184 1 25.5642 34.507 7.66453 0.553171 -459678 -191511 382300 -347459 140086 171860 
245 1 25.6227 32.657 9.46385 0.323224 243521 -158110 583709 63448.3 -60942.8 -142653 
1431 1 27.3202 36.0993 7.58191 0.291768 123049 364066 716045 -465447 -174828 -80654.2 
185 1 29.1935 32.6526 5.73016 0.442725 -37484.9 201004 229259 -68457 -119683 -160541 
1505 1 29.1398 36.1413 9.36747 0.506703 -389411 -299883 395557 -192744 -19474.1 -318989 
188 1 29.1991 34.4575 7.53598 0.294182 474626 -204437 331035 15308.6 -6867.05 -307483 
187 1 30.8911 32.5544 7.60005 0.419678 -492999 -330389 132998 -497278 -226979 160481 
250 1 30.9387 34.4092 9.48272 0.222522 -123375 282691 248253 -72850 249151 69197.7 
249 1 29.1096 32.6909 9.49763 0.0795052 392757 398839 991060 269411 256880 -70281.2 
1439 1 34.3673 36.1476 7.5763 0.164924 -129224 -251516 -290263 197998 167744 9500.7 
2922 1 36.1443 34.4007 7.69447 0.30362 -661289 -799513 62105 -633336 20381.6 104452 
189 1 32.7216 32.6943 5.72202 0.312421 -691361 -294886 198903 303475 -206968 -229988 
191 1 34.3688 32.786 7.53039 0.850127 -731829 -102506 362272 -475670 -235145 -283044 
192 1 32.5145 34.3843 7.6421 0.734044 -483283 -300899 118662 267956 256390 -194477 
253 1 32.6606 32.5203 9.49719 0.558204 -23362.1 -247282 125222 129185 -68157.2 -154680 
254 1 34.4053 34.4216 9.49372 0.13395 -183032 -231817 -94551.1 -35586.4 298874 -105488 
2991 1 36.1329 32.5694 9.47043 0.150514 -589468 -156828 -566479 -113089 519754 45561.8 
195 1 24.0444 22.0969 11.3971 15.0237 -287991 -129899 104464 -104317 -220256 -20355.4 
196 1 22.2943 23.7875 11.2532 14.3952 304889 645644 1.64139e+06 -68396.7 152046 65019.7 
198 1 27.3279 23.9993 9.62448 0.621629 -4953.54 -267812 998379 -207185 10880.4 -226421 
199 1 27.0472 22.0636 11.4945 13.5181 1.84065e+06 823150 1.45828e+06 336838 -249560 -157098 
200 1 25.471 24.013 11.4858 0.807911 -337152 -783290 -24298.6 -14531.3 181654 -631411 
202 1 30.8857 23.6397 9.65364 0.71714 628729 -216298 565500 -303387 -11507 154929 
201 1 28.942 22.098 9.55264 15.6973 1.46616e+06 414580 1.78182e+06 -53847.4 92620.5 123555 
203 1 30.8337 22.0368 11.4679 17.1898 1.0158e+06 376622 678166 60269.1 273838 542437 
204 1 29.1146 23.8954 11.4758 0.466087 99804.3 -480306 337184 3667.33 125627 423138 
265 1 29.0567 22.1714 13.173 14.4446 1.01429e+06 4423.32 1.12529e+06 311500 344268 506061 
3009 1 36.1047 21.7106 13.2264 19.4615 1.33584e+06 833941 1.43573e+06 -217243 232909 201844 
205 1 32.6069 21.8269 9.59112 17.5544 1.006e+06 400998 1.54452e+06 -89576.9 -482490 -1014.09 
208 1 32.7053 23.7969 11.4537 0.342915 -159326 -336435 391056 278851 -470403 336234 
207 1 34.3043 21.9326 11.2872 15.9717 413729 9973.04 524455 -126802 -264991 99857.6 
269 1 32.6077 22.004 13.2759 17.1629 946089 174034 1.31655e+06 -209023 -61958.4 105733 
270 1 34.3695 23.6918 13.2741 0.214274 595592 477990 818377 -405821 -13136.3 178268 
210 1 23.8667 27.4425 9.56945 0.363124 -502439 7108.51 499080 411640 -1396.57 101917 
209 1 22.004 25.692 9.57943 18.0464 609065 1.18845e+06 1.29702e+06 -23088.7 -259343 -77395 
211 1 23.7743 25.7433 11.402 0.344711 -688624 -535864 269180 15318.7 -2304.41 126134 
212 1 22.0512 27.5481 11.4025 15.6858 194755 488912 695920 -187833 71706.1 525480 
273 1 22.1117 25.697 13.2892 17.3943 -26217.6 769935 1.58834e+06 -302166 121616 169302 
214 1 27.3679 27.5692 9.52705 0.383017 -282443 -201110 942515 -451831 147153 -75144.4 
213 1 25.6487 25.8072 9.50637 0.320044 -647436 -414248 827579 -63133.4 -241168 -189502 
215 1 27.4016 25.6814 11.4394 0.199583 -158923 -184122 184708 -136291 185076 -621205 
216 1 25.5581 27.4538 11.5193 0.265753 96553.6 -86267.8 268136 -264658 -324334 -108306 
277 1 25.6508 25.621 13.2656 0.574436 -185948 -788512 -89487.1 -332534 -51030.1 -346963 
278 1 27.3596 27.4203 13.2823 0.278375 -153904 50752.6 128378 -486818 -172334 -119197 
219 1 30.9043 25.4731 11.5036 0.471427 28877.7 228063 683655 -347437 63674.4 -152521 
220 1 29.1067 27.4055 11.5024 0.156271 81944.8 424815 637917 -491212 116261 -159179 
2958 1 36.1192 27.2662 11.4459 0.183175 -146375 -292611 957957 -235668 200669 123439 
221 1 32.5856 25.5045 9.58494 0.236685 565993 495144 680639 -332068 86054.1 465578 
222 1 34.3402 27.26 9.5127 0.143822 -284820 84549.3 249968 -391073 330769 139194 
223 1 34.4743 25.5216 11.4825 0.441056 396649 378307 740765 -897821 -87961.3 216711 
224 1 32.5695 27.4397 11.3869 0.557401 503275 710561 922862 -188083 84345.3 -48761 
225 1 22.0378 29.0687 9.56804 16.1213 281307 1.13082e+06 849518 159515 -192330 659633 
227 1 23.7695 29.2711 11.4138 0.255643 -413186 143125 501805 -521756 -70756 -100112 
228 1 21.9134 30.9785 11.5266 16.1046 514787 1.3186e+06 1.71659e+06 -227942 -77323.7 320535 
229 1 25.5875 29.2151 9.54267 0.153836 -705141 -646306 936985 -204707 76345.1 57922.6 
231 1 27.3056 29.2262 11.4947 0.204088 4180.94 -75334 260195 -111017 170966 -26407.9 
232 1 25.5301 30.9604 11.4503 0.103848 111694 -371757 307277 -242564 43902.3 -98049.4 
233 1 29.0408 29.2562 9.59704 0.4045 -902899 -811984 418507 -527207 -118742 -184756 
235 1 30.8374 29.2329 11.4327 0.284321 -335403 -30012.9 794016 116962 -38257.1 71586.2 
236 1 29.1151 30.9506 11.4405 0.0565822 63882.2 -314414 441779 290115 220124 -476182 
238 1 34.3494 30.7393 9.52882 0.518336 -697799 -397937 -488326 285768 -612610 -249414 
239 1 34.4033 29.0977 11.4046 0.218385 -326903 -485518 594309 -430218 -5251.76 203929 
240 1 32.6463 30.8741 11.4279 0.18147 -188263 41576.3 504301 -107291 -3284.17 116567 
1569 1 21.8767 36.1082 13.2027 16.8015 367865 1.33482e+06 1.37608e+06 169556 248186 80042.6 
241 1 21.8082 32.5193 9.50794 16.8421 965505 1.29877e+06 1.10162e+06 229819 -204536 -518808 
306 1 23.6719 34.4128 13.176 0.458034 -103603 66929.6 921842 -472728 351395 8725.69 
243 1 23.6495 32.6769 11.3138 0.530928 207003 400839 1.1213e+06 -15772.6 -91918.1 -151868 
244 1 21.8755 34.3864 11.1176 14.0369 255714 1.05355e+06 1.56783e+06 175167 130312 -113781 
246 1 27.3401 34.4516 9.56006 0.31103 33285.8 -71534.8 421260 -187775 45107.5 148655 
247 1 27.334 32.6842 11.4038 0.100798 -113206 98800.6 750804 228436 38663.8 127888 
248 1 25.5874 34.3949 11.386 0.198258 8107.59 -82021.1 309969 -125954 189619 -276176 
1573 1 25.5468 36.1239 13.1943 0.58351 -370378 -435520 227058 242652 126280 28080.4 
251 1 30.9285 32.7164 11.4505 0.207865 -15706.4 313851 644774 -55481.3 -117958 158633 
252 1 29.1269 34.4607 11.4966 0.275563 -110529 -41980.6 708334 -273189 -28570.2 -299266 
318 1 34.4612 34.301 13.3053 0.193645 -27846.4 -245562 437584 -601636 -74365.1 26785.9 
317 1 32.6752 32.6956 13.2423 0.377683 -112036 -152271 809104 -382637 -539060 -95014.2 
255 1 34.5361 32.5368 11.2687 0.776143 -286575 19009.8 152484 -525964 191675 -195620 
256 1 32.6903 34.4619 11.3756 0.20316 77561.1 165011 489642 -714902 -9483.67 175098 
1511 1 34.4432 36.1113 11.41 0.162188 -440389 -278707 307000 -420160 24657.1 -70037.6 
257 1 22.4465 22.0149 13.3128 28.3032 865526 820988 1.28481e+06 -96588.9 -73997.5 -56439.5 
258 1 23.8835 23.9693 13.3395 0.684323 -1.03263e+06 -498695 288646 -155308 248271 -29155.9 
259 1 23.6918 22.1456 15.4323 13.9259 13421.2 -223537 783823 254328 -243635 -391579 
260 1 22.0745 23.8647 15.1328 15.6563 17772.9 530426 1.15379e+06 241782 -190077 201723 
322 1 23.6843 23.9082 17.1106 0.260587 -14306.8 -457997 76378.3 -387843 -67851 -3544.84 
261 1 25.4422 22.1144 13.5679 12.7687 1.37917e+06 -196155 1.01813e+06 114746 140814 -590068 
262 1 27.2595 23.8116 13.355 0.512957 -203803 -501275 886839 346552 87453.2 -256873 
263 1 27.5162 22.0387 15.3553 15.0155 1.16857e+06 151586 1.62652e+06 -833441 -256553 -93150.2 
264 1 25.5306 23.8065 15.2569 0.35175 455934 -281012 291985 -206145 -17698.9 -517303 
266 1 30.9454 23.8602 13.4745 0.570906 193377 -292988 572996 -31975.6 -209928 484647 
267 1 30.9033 22.1547 15.2658 14.7573 1.23529e+06 -176245 1.29615e+06 -161519 106717 72951.5 
268 1 29.0431 23.786 15.3153 0.36869 -147457 -909888 793494 -456970 109905 83749.8 
272 1 32.7125 23.7606 15.2436 0.152076 -213212 262855 412539 -898039 -444839 -139179 
271 1 34.4508 21.7729 15.1475 18.6125 1.90024e+06 1.05041e+06 1.65269e+06 -44127 29197.1 -50562.6 
334 1 34.4686 23.6437 16.9862 0.977708 86682.7 -212615 304853 -49140.1 -189712 472849 
274 1 23.7546 27.4156 13.4022 0.248681 -614355 289584 526615 -354598 -108630 -68674.5 
275 1 23.8324 25.6329 15.2913 0.240106 -61968.9 -491045 510698 -224922 -90556.9 -237.966 
276 1 22.0974 27.419 15.3068 15.5051 49404.9 794617 864519 -107413 -32711.1 93165.4 
337 1 21.8614 25.6209 17.0722 17.0044 570950 1.12652e+06 910269 121738 93069.2 361665 
280 1 25.4698 27.3976 15.19 0.503613 396357 575813 1.06849e+06 -261758 -246903 45132.2 
279 1 27.3023 25.6037 15.2323 0.128532 178945 464238 454856 27176.6 125394 -185656 
282 1 30.8327 27.2583 13.3736 0.471396 -155349 -44201.6 659386 54418.7 -8721.76 -218528 
281 1 29.075 25.5285 13.4681 0.423919 -65863.8 152669 443210 -187806 140039 -50088.6 
283 1 30.7844 25.6256 15.4171 0.708555 -68221.1 356343 44809.5 -151208 -96044.3 -76417.7 
284 1 29.0702 27.4401 15.2448 0.300473 -467522 -499840 357794 308543 200360 140356 
3030 1 36.1019 27.4339 15.1913 0.918682 -22384.7 -52305.7 634879 278442 -159598 -119574 
286 1 34.3828 27.3266 13.3424 0.122088 -41640.3 3911.1 457603 -305661 12295.7 -334669 
285 1 32.6644 25.6021 13.3805 0.220278 -74967.8 50450.8 1.10586e+06 -322209 -106079 -89493.9 
287 1 34.4607 25.4715 15.3332 0.488892 122483 -28181 311689 -238338 -135727 118937 
288 1 32.6435 27.3621 15.3107 0.18821 -61954.5 22567.6 344493 -178559 -194952 136382 
290 1 23.7744 31.0056 13.3946 0.170495 -499903 -135394 788329 -456358 87081 -296013 
289 1 22.0753 29.2315 13.4228 16.3671 198772 767365 1.10174e+06 2770.88 -94857.1 -97930.8 
291 1 23.7418 29.2442 15.3742 0.378567 -361768 -194567 695929 -117171 -137989 -375936 
292 1 21.9508 30.9015 15.2822 18.236 110290 1.16314e+06 1.29294e+06 182015 -137263 -289859 
296 1 25.5113 30.9595 15.3608 0.212044 430535 237943 654804 -36.0431 -188998 125500 
294 1 27.3978 30.9165 13.4225 0.230942 -149212 -178659 482446 -352529 -246442 -151806 
295 1 27.3881 29.1427 15.2893 0.260172 6288.7 -23939.8 602746 121911 -14993.3 317722 
293 1 25.518 29.2706 13.3606 0.23523 496719 283171 704659 16089.2 80004 61922.8 
300 1 29.0404 30.936 15.304 0.258138 -493034 -378221 202949 -234369 -368320 146090 
298 1 30.8909 30.9798 13.4176 0.333543 -322975 -329312 432634 374734 -264467 38125.2 
297 1 29.1764 29.1194 13.3958 0.259659 -78320.6 -234689 51836.5 9273.76 -90039.5 152863 
299 1 30.8859 29.0974 15.212 0.29802 -570229 -372270 96507.8 -345242 113801 -258274 
362 1 30.8645 30.7955 17.0864 0.518147 101194 253757 171520 -191987 74271.8 240678 
303 1 34.3726 29.074 15.1527 0.255379 -966668 -936534 100992 -75167.8 33360.6 -35021.3 
302 1 34.2959 30.7937 13.3387 0.530071 -117924 -130739 386685 73767.1 -162536 -21036.9 
301 1 32.5464 29.0831 13.4108 0.361757 -309521 -186859 -15700.3 -251524 35437.6 -123837 
304 1 32.5719 30.8496 15.234 0.216358 -585528 -265601 -213813 -157832 -38084.1 -323437 
366 1 34.418 30.8502 17.0646 0.213149 -779240 -596323 656474 -693350 122256 249063 
308 1 22.0362 34.4735 15.2461 15.3531 83485.5 795524 1.01695e+06 -278892 -58482.4 -86429.5 
307 1 23.7349 32.6545 15.2867 0.208877 -542814 -166634 747449 -117454 -146168 -308801 
305 1 21.9539 32.8138 13.4192 14.7443 128335 1.07852e+06 1.46256e+06 -575601 25926 -311799 
1571 1 23.7658 36.1255 15.1352 0.491696 -383188 -41262.4 973281 34691.3 -245642 237884 