ITEM: TIMESTEP
20000000
ITEM: NUMBER OF ATOMS
5780
ITEM: BOX BOUNDS pp pp pp
4.0237362667484016e+00 6.8276263733267086e+01
4.0237362667484016e+00 6.8276263733267086e+01
-7.2029295452948725e+00 7.9502929545310408e+01
ITEM: ATOMS id type x y z c_csym c_2[1] c_2[2] c_2[3] c_2[4] c_2[5] c_2[6] 
68 1 21.3603 24.3899 -4.42901 21.5039 510652 101145 661617 319561 -96699.3 -223060 
65 1 21.6009 22.7181 -6.20083 36.5272 533336 272677 683726 -315400 62965.8 -135758 
66 1 23.2803 24.3927 -6.1942 7.02903 -724422 -677177 504406 -306725 -105014 -163675 
67 1 22.9967 22.6174 -4.142 18.6842 119237 -622165 1.47619e+06 -202735 -456318 51509.8 
69 1 24.7937 22.4596 -6.18608 12.5588 909157 168786 797784 186457 -512206 239264 
72 1 23.869 24.7519 -3.82453 4.82859 -686442 -1.07771e+06 -620515 -847881 -227635 -358388 
71 1 25.4416 22.9083 -3.7803 11.7462 378130 213194 1.00201e+06 212674 49641 141017 
70 1 25.5826 24.844 -5.51665 6.56956 -841248 291198 69624.7 -356136 165147 140262 
73 1 27.1958 22.8607 -5.5634 9.92188 478563 149551 480342 -114362 192369 290944 
76 1 27.2183 24.7495 -3.67712 0.511312 214116 34382.8 -165445 -144217 -810874 -56135.9 
75 1 28.9017 22.9276 -3.69995 17.6081 594027 493198 659234 219696 262594 162656 
74 1 28.9779 24.6879 -5.60237 0.198275 -384066 64501.5 -156811 -475019 -653246 240644 
77 1 30.5706 22.7764 -5.46284 11.7275 819551 538819 845133 171831 57387.8 41274.6 
78 1 32.3674 24.6259 -5.42521 0.639814 299552 490284 206382 -32088.6 241427 87458 
80 1 30.5889 24.9094 -3.82289 0.681347 -87500.5 209672 -507539 -132076 -206551 -66993.5 
79 1 32.3962 22.9281 -3.60908 11.7572 1.34434e+06 446285 1.03397e+06 -238269 -105601 248870 
2793 1 34.259 22.8694 -5.38987 17.1736 741300 328362 875236 -169817 -93120.1 -228781 
2794 1 36.0438 24.5756 -5.5731 0.24592 -72744.9 -921697 162156 -212707 247280 -390331 
2796 1 34.2589 24.638 -3.64615 0.384772 618968 -392223 110131 -526946 -64491.5 -95722.5 
2795 1 36.0804 22.8353 -3.6752 15.8432 1.34945e+06 740858 1.71478e+06 -208209 -195995 292206 
81 1 21.3325 25.9959 -6.47273 13.4346 259257 978080 699444 196780 290016 -150584 
82 1 21.8153 28.4063 -5.83082 10.1555 348819 490410 338041 88504.2 46374.6 682824 
83 1 21.9906 26.7857 -4.07022 8.97382 -397307 189842 -697309 -711614 610827 315265 
85 1 23.7243 26.7301 -5.68524 6.38224 -489820 -627864 -204343 -363828 564186 -421395 
88 1 23.642 28.5163 -3.93736 5.69423 -481453 -1.2879e+06 -24513.3 -310950 21476.1 -55217.4 
87 1 25.3286 26.6967 -3.71908 0.65564 -381183 -495114 -474657 -400589 -34350.6 -133150 
86 1 25.4504 28.423 -5.75544 0.205438 -1.04892e+06 -612385 166661 141282 300010 42667.3 
89 1 27.1776 26.6942 -5.6689 0.594106 -326076 -687057 -156703 -523664 -297640 292281 
92 1 27.1107 28.4876 -3.88974 0.0970509 -828377 -505011 -368785 354854 221390 -448.92 
91 1 28.7791 26.7245 -3.79878 0.432347 -965621 -292819 -543978 146887 -114196 302232 
90 1 28.8554 28.4456 -5.62262 0.286327 -692912 -504986 -291372 -279601 95085.4 -87535.2 
93 1 30.5465 26.5664 -5.65371 0.43071 -208564 -471913 -450849 -420177 -293901 368837 
96 1 30.6277 28.4124 -3.83938 0.123955 -465516 -236219 23955.2 434186 68043.8 247558 
95 1 32.407 26.6569 -3.82215 0.539016 143683 277712 194875 -116674 -46140.5 188266 
94 1 32.361 28.3487 -5.6198 0.537063 688304 303805 -175553 -155102 66932.3 131448 
2811 1 34.3241 26.3061 -5.57377 0.730768 405141 699656 148221 153470 -339255 -103984 
2814 1 34.3992 28.2964 -3.80111 0.577886 30779.2 -207498 665188 -53202.9 -73890.7 311710 
2813 1 35.9973 26.4083 -3.75493 0.315598 -482505 244773 -84891.8 129764 75491.6 100273 
97 1 21.2845 30.9853 -5.55313 29.7859 873107 856822 756186 -172633 149537 -371395 
101 1 23.7428 30.1746 -5.7781 5.02758 47774.2 145441 -425409 238288 80746.7 326378 
103 1 25.3914 30.2856 -3.95583 5.87669 -441661 27830 198606 -5694.46 -212801 -56743.8 
102 1 25.4579 32.0595 -5.91654 5.72959 -701682 -255988 -236700 203464 94145.1 64283.7 
105 1 27.1256 30.2797 -5.78071 0.159676 -35617.1 -74852.5 291145 311185 95614.1 266846 
108 1 27.2331 32.0903 -3.89197 5.49525 489327 -125837 909843 119393 38377.8 -88731.1 
107 1 28.9298 30.2215 -3.8481 0.228794 -344357 -318906 518864 -265086 99989.2 -251810 
106 1 28.903 32.1728 -5.86283 0.996283 454621 27996.8 249146 -364834 26575.3 -80645.5 
109 1 30.6463 30.2286 -5.73416 0.392787 461492 177460 245354 -225537 208512 -11122.8 
112 1 30.6985 31.8491 -3.81024 0.664556 97018.7 -334900 494125 -724491 46854.9 -192787 
110 1 32.5062 31.9588 -5.67814 0.470972 -4533.62 25779.4 258126 12083 -171841 -370213 
111 1 32.6376 30.0884 -3.78789 0.592917 697117 173372 404035 -43291.4 144821 -241915 
2830 1 36.103 31.767 -5.69928 0.2176 -627603 -359611 333064 -116033 108125 -214169 
2829 1 34.3815 30.092 -5.6663 0.208362 126531 118775 126464 -368723 70464.4 16432 
2832 1 34.3423 31.9361 -3.87381 0.299651 -230979 213724 -110407 -346719 109907 -218818 
2831 1 36.1107 30.0104 -3.7947 0.167074 -531471 -359098 42655.8 -602136 -330715 197162 
98 1 23.0565 32.7414 -5.43451 6.47148 -301294 395876 49287.4 -332616 -31124 -26932.2 
117 1 24.737 34.4742 -5.32364 5.90591 -567109 17655.9 699582 -413512 76291.3 104746 
51 1 22.8776 34.4861 -7.14529 8.74617 222389 366064 862883 -602581 -184386 377488 
121 1 27.1231 34.0174 -5.84743 6.30995 -227777 -98213.2 606472 -128042 526292 -98642.3 
122 1 28.9427 35.6475 -5.93085 6.19525 223598 354975 305991 -501101 -187713 -426161 
123 1 29.0474 33.7984 -3.97153 5.08997 501186 421562 589727 -372385 316617 -467199 
125 1 30.8088 33.7037 -5.82189 0.272751 -665966 -215163 157711 -366724 -231440 -233955 
128 1 30.7823 35.5838 -4.08443 5.65575 278188 -54013.2 434897 -84643.1 196954 27855.7 
126 1 32.5724 35.4025 -5.79467 0.316077 -472605 -338884 -127010 -283119 -8667.14 -7502.12 
127 1 32.4118 33.6239 -3.92341 0.825753 -125040 -398696 -633892 -127910 186029 -300005 
2847 1 34.3889 33.6101 -5.77781 0.127834 -304770 -139127 120994 -255495 -504153 202833 
2850 1 34.3307 35.3459 -3.89109 0.41052 128754 -232331 -426028 -80409 13788 454533 
130 1 21.9458 24.9047 -2.07703 10.4471 652529 858140 875723 -393411 -59578.6 -13902.5 
133 1 23.7495 23.0719 -1.66926 14.377 700087 311860 1.67483e+06 -430113 361566 -108826 
134 1 25.2727 24.9485 -1.89994 0.882359 -234108 1284.55 -337000 -331250 -10996.4 124270 
136 1 23.6886 25.0844 -0.111927 5.87737 -215728 -149971 -283021 -525654 499484 -188730 
131 1 21.9061 23.2468 -0.12338 30.6011 56484 468482 -154887 222093 244933 -141596 
137 1 27.1788 23.0423 -1.85795 16.2279 1.33357e+06 364046 906882 -344267 79683.8 248871 
138 1 28.759 24.9503 -1.84711 0.407061 -708245 -445686 228300 140341 -566416 -153652 
140 1 27.0363 24.9264 -0.0140969 0.353725 -416734 -975536 36049.5 -653897 34464 -71784.4 
141 1 30.5248 23.2042 -1.77195 15.3543 844535 164054 1.289e+06 -180998 -190922 -90252.7 
142 1 32.284 24.8676 -1.9098 0.263877 -255605 -324064 411953 -234809 -67443.8 234187 
144 1 30.5883 25.0772 -0.0398779 0.406115 -399304 -120502 -84232.1 357624 156265 30167 
143 1 32.364 23.1967 0.00309814 17.0921 289268 -230469 399722 -584339 574501 -40834.7 
2865 1 34.0781 23.0498 -1.73517 17.2228 886594 144674 328366 56675.9 -143236 -133105 
2866 1 35.965 24.8739 -1.7004 0.821921 227869 266027 583068 49723.1 -25569 374842 
2868 1 34.0694 24.8195 -0.0566346 0.632552 -349318 -281004 416245 -183250 498767 -329732 
145 1 21.3436 27.4203 -1.82019 24.7394 -655852 2883.02 360476 10744.2 160897 -349467 
149 1 23.5899 26.7528 -2.05856 5.5892 -1.66445e+06 28030.1 -138422 334525 550756 122622 
151 1 25.3408 26.8295 -0.114754 5.60732 -453942 -848774 83205.8 -282529 -181620 -139303 
150 1 25.3877 28.5521 -2.0437 5.62741 102179 -442190 -938030 -273701 240231 -466449 
153 1 27.1114 26.7133 -2.00775 0.239205 -722065 -177644 91826.3 270635 34693.6 93581 
154 1 28.8107 28.5444 -1.95154 0.221401 -3676.9 -215845 -22174.1 -196037 -9027.38 -64640.6 
155 1 28.8623 26.7692 -0.0957143 0.195563 64230 -534281 94743.2 134581 219654 11446.6 
156 1 27.0823 28.6596 -0.10048 6.32283 -870712 68249.5 150880 78347.5 100733 182907 
157 1 30.559 26.6728 -2.06707 0.5365 -25754.9 -189282 -116070 1781.2 43173.6 130876 
160 1 30.6452 28.4816 -0.132248 0.207837 -249130 -171840 214156 177815 241820 360666 
159 1 32.3989 26.7378 -0.0584462 0.121636 -638115 -698625 129219 -463748 231058 443842 
158 1 32.4522 28.3967 -1.91889 0.103992 49837.8 -217182 272470 -10144 50202.4 307802 
2883 1 34.1582 26.5438 -1.99887 0.677031 26249.7 74135 453162 245150 148171 119431 
2886 1 34.199 28.2881 0.0157004 0.761384 -481868 -240097 -240850 -146391 60176.1 652205 
2884 1 36.0212 28.3547 -1.87413 0.294796 142857 237215 318476 143656 -255990 309081 
84 1 21.2896 29.2885 -3.39819 30.4379 -336804 252626 672431 -664302 -404558 354.802 
146 1 22.8716 29.2657 -1.56553 6.84826 -357070 -174828 -459688 -583806 -410753 174158 
99 1 22.9923 30.8904 -3.44966 6.84418 -586890 -440346 729277 -666455 349651 -50223.3 
165 1 24.6745 30.9977 -1.48581 6.23482 -658751 -424048 -55236 -55983 271540 134460 
169 1 27.0408 30.3497 -1.98056 6.0343 -432416 -335821 444900 -469049 -78775.8 123635 
171 1 28.97 30.3226 -0.189278 6.02851 -150293 -584408 -677371 -16313.2 211677 255330 
170 1 28.848 31.986 -1.91694 5.35889 9836.64 -58447.6 -395271 -81406.5 -263548 102801 
173 1 30.7102 30.1963 -1.93886 0.168141 -52219.5 -164362 -106849 -35724.5 221199 367814 
176 1 30.7365 32.1276 -0.236226 6.1721 94821.2 -117771 337219 -130274 -69653.5 287275 
175 1 32.5084 30.2609 -0.0441785 0.183444 -10756 103921 -303179 -40166.1 250998 -81880.2 
174 1 32.6093 31.8943 -2.0601 0.406197 -69188.2 -351053 -273171 187572 170759 -205979 
2901 1 34.2833 30.0416 -1.80049 0.779467 -474731 -236347 421524 327867 -123506 -170464 
2904 1 34.3698 31.9783 -0.139953 0.108126 -646739 -665426 -157504 322568 206068 -4442.03 
2903 1 36.0792 30.1836 -0.0273439 0.215557 -176737 318812 14521.6 203486 -326785 -101765 
2902 1 36.0249 31.9416 -1.97329 0.453574 -91939.1 69921.6 332526 157257 205274 -63345.5 
104 1 24.6587 32.6998 -3.45808 6.04916 27469.5 48362.1 602289 -425061 -26210.5 -8343.68 
1281 1 22.8971 34.5365 -3.53236 28.0556 688732 1.28014e+06 1.38867e+06 149253 92607.4 -80172.7 
52 1 22.836 32.6962 -1.6937 21.8757 462165 1.06763e+06 1.09691e+06 144288 194782 -232814 
1283 1 24.6214 34.4612 -1.64415 5.76641 142528 294005 475337 411574 67558.3 -84621.7 
166 1 26.4308 32.8069 -1.47113 6.08938 -218612 -616633 119053 46086.4 207572 -45137.7 
119 1 26.5161 34.3729 -3.42813 6.23286 439882 -148806 -129391 -143410 -205586 -100806 
185 1 28.2776 34.4699 -1.67835 5.72106 241804 -124880 304148 -153339 -116901 168107 
189 1 30.8686 33.6986 -2.06984 5.55723 119290 120868 -566964 -156613 426652 143759 
190 1 32.515 35.5193 -2.16566 6.0668 67019.3 -320298 699839 -501297 192983 -47367.9 
191 1 32.7222 33.7458 -0.328737 5.99777 -474507 9362.29 -909.298 43457 -7896.72 44560.1 
2919 1 34.3732 33.7295 -2.09293 0.247068 -437796 -675376 -454740 42689.9 437515 233739 
2922 1 34.4586 35.5228 -0.261505 6.14742 110634 -897823 -36072.9 -380539 165724 385887 
193 1 21.3427 24.0575 2.05814 38.8976 -277736 -359916 -315046 34776.5 -210165 33047.9 
197 1 23.6011 23.2286 1.65513 13.8918 110278 613919 788936 -29243.9 256782 88384.8 
198 1 25.2995 25.0977 1.85731 5.59032 -601782 -551818 -202368 -74599.4 255602 -169547 
135 1 25.6343 23.11 0.227223 12.8644 -124254 -181062 -326708 -1.05467e+06 -853237 -199106 
201 1 26.9805 23.2481 1.97778 15.2965 -663703 326398 -1.23476e+06 54009.9 -1.09032e+06 -163194 
202 1 28.8149 25.0507 1.71199 0.636665 256670 79409.3 372048 443643 47708.7 146861 
139 1 28.7643 23.0745 0.136111 16.0677 1.52238e+06 693883 1.24233e+06 268141 -74012 -230583 
205 1 30.6901 23.3491 1.85675 15.1036 605054 115320 1.11243e+06 -439215 -125316 183635 
206 1 32.3834 24.9994 1.75568 0.604817 -330975 -585160 416483 -530948 68428.2 130238 
2938 1 35.9572 24.9486 2.00855 0.28244 401937 -117748 669029 52352.8 383491 412621 
2937 1 34.2044 23.0772 2.02693 17.677 1.79666e+06 836154 1.6826e+06 -183749 75199.1 -172115 
2867 1 35.86 23.0793 0.0847658 16.9002 1.30128e+06 614141 1.25038e+06 243342 116985 264325 
129 1 21.2827 25.6603 0.2328 26.5536 430091 454027 999449 -15951.3 -3055.44 -156198 
194 1 22.9765 25.822 2.21424 5.27432 -1.0761e+06 318893 188887 -469977 222108 148703 
147 1 22.95 27.5523 0.245016 6.35952 -54822.4 364524 389763 -123359 193260 -93207 
213 1 24.7114 27.6 2.20629 5.02415 -818682 -199989 343094 204081 -74438.3 -212620 
217 1 27.0361 26.7512 1.69294 5.41865 -896186 -171981 41880.8 -101819 -229079 -215306 
218 1 28.8949 28.5297 1.71169 5.60793 -39427.6 -387182 -125307 20711.8 197317 -82858.2 
219 1 28.7444 26.9233 3.60237 6.42191 -316960 -449450 882177 -135255 -11919.1 324330 
221 1 30.7965 26.8592 1.88666 1.05269 185869 -73319.7 395432 80458.5 269031 130436 
222 1 32.4819 28.5917 1.80252 0.326358 -180083 -662301 -146464 -358312 226534 -289806 
2885 1 36.0801 26.7003 0.0613221 0.664062 96096.5 248739 105680 426747 -471315 -66936.4 
2956 1 35.9349 28.4719 1.90452 0.393814 -111392 -275426 383440 94942.3 -208394 -254052 
2955 1 34.1896 26.7231 1.85955 0.175403 227498 -466301 276492 -90460 32449.6 736570 
100 1 22.9351 29.1944 2.10631 23.6831 79940.5 354361 1.31049e+06 209109 75756 -67802.4 
152 1 24.7682 29.2063 0.157165 5.6216 -1.05486e+06 -947632 -522382 289782 352887 -21650.7 
113 1 22.9194 30.9197 0.249666 23.92 -96504.9 519964 388187 -133337 161223 -190687 
115 1 24.5961 30.9357 2.07462 5.89546 -141219 684610 549744 -172549 -58196.5 292977 
214 1 26.546 29.2782 2.30075 5.65604 -493182 -295679 -209819 -546748 277004 83980.4 
167 1 26.5019 31.064 0.4174 5.92887 240036 -251624 11058.7 -89157.3 -21019.7 -337216 
233 1 28.3098 30.9427 2.17163 6.41925 -676548 -142145 242410 -399876 146224 143498 
237 1 30.6325 30.3289 1.74933 5.80468 -576225 496026 313455 -21305.1 24511 -196796 
238 1 32.5285 32.0308 1.67839 5.68451 118471 -483640 155525 277751 -7057.45 -588319 
239 1 32.4538 30.1939 3.61001 5.99583 -803142 -744910 130763 330905 -54145.9 -199062 
2974 1 36.1325 32.0532 1.73215 0.152939 -4658.53 -103556 -105585 -51347.2 42775.2 -156615 
2973 1 34.2879 30.3116 1.76862 0.178327 -511360 -415244 90789.8 224473 -46291 3851.58 
2976 1 34.2978 32.1158 3.48203 6.22691 -547391 -625728 -52884.9 370988 -205980 -324068 
114 1 24.5562 32.7594 0.238682 5.5 -18174.2 -404080 102537 -69926.5 327462 -168667 
1353 1 24.1867 35.1415 0.783164 11.5267 -654597 609234 22655.8 189563 -437209 -89265.3 
116 1 23.8773 33.4268 2.58496 14.7107 343203 877791 492951 -227589 -206397 -65774.7 
172 1 28.3252 32.809 0.333265 5.24891 -164471 396312 -387336 -34785.3 -26602.2 -360698 
120 1 26.4519 32.9035 2.04253 5.48106 646263 85675 -442284 -322895 32696 157037 
1355 1 25.5686 35.3044 2.65162 6.9702 -680077 126220 -903906 -52289 -553607 -311964 
1357 1 26.4483 34.5448 0.250113 5.72202 -182916 111563 271485 196809 148455 28336.2 
1359 1 28.2355 34.621 2.16853 5.78327 195980 -1.10802e+06 -91146 -358226 -9162.08 241410 
234 1 29.9564 32.8342 2.1854 6.3239 -385211 -75501.8 456950 -585728 -141637 -29476 
187 1 30.2287 34.5557 0.234016 5.54246 257836 -246530 422692 -202905 -303519 96009.8 
253 1 31.7954 34.329 2.16109 5.50148 7896.19 -200998 597849 -344460 -158602 55484.3 
254 1 33.7163 36.1461 2.14454 6.10338 60235 -379570 356134 306518 -83255.7 247366 
2991 1 34.3131 33.8257 1.62571 6.54058 -111407 -786216 -335353 -228827 74350.2 -62143.6 
2992 1 36.1196 35.4718 1.74462 5.61407 -689030 -626835 -839.522 -724278 8026.64 -77278.3 
195 1 22.9072 24.0296 3.9613 20.0345 -356121 14282.2 216618 179480 -286295 189062 
261 1 24.5056 23.8879 5.90067 20.4673 1.03882e+06 929207 687691 225795 319724 -67872.2 
199 1 25.2599 23.2961 3.69384 14.4053 314287 481817 419540 179057 950732 -40199 
204 1 27.1263 25.1029 3.74309 5.06643 -73181.4 -568136 561726 273054 -133762 -162689 
265 1 27.0705 23.3126 5.71169 15.1204 1.46766e+06 796928 1.40096e+06 -60081.9 7719.47 75205.8 
266 1 28.8194 25.2651 5.60461 5.26063 -505092 -533973 -37930.1 63190.8 -86295.7 -135628 
203 1 28.7153 23.3554 3.77572 16.6031 922319 246757 1.38933e+06 584852 -314135 5387.92 
208 1 30.5609 25.1952 3.76954 0.257463 773824 202192 887121 229634 174187 79419.6 
269 1 30.4261 23.3824 5.6865 16.2593 1.29311e+06 483699 1.27396e+06 222078 286583 -41514.2 
270 1 32.3424 25.1154 5.72297 0.278612 218566 -471528 157148 95427.7 -36198.2 -206132 
207 1 32.2342 23.3275 3.8189 16.9213 1.11278e+06 596035 1.32343e+06 46998.2 -293646 3614.62 
2939 1 35.9503 23.3663 3.89825 15.036 191332 -490138 220583 -36754.4 12941.8 -24204.2 
2940 1 34.131 25.0099 3.69754 0.589575 -24316.6 -332554 447594 166761 179179 368039 
3009 1 34.0739 23.4074 5.66043 15.7733 263989 -89565.3 566433 89426 -264067 -21898.8 
3010 1 35.9175 25.0554 5.643 0.117465 36782 -1.43534e+06 -899385 -277194 5219.2 247091 
148 1 21.2363 25.7835 3.89193 52.7373 604588 124800 772108 182628 376750 85842.4 
200 1 24.6537 25.7809 4.09162 5.57038 -48537.3 -384243 -513125 -110044 6745.11 -691390 
132 1 22.839 25.7426 5.92245 23.5737 623673 700497 915646 98245.2 101287 488019 
161 1 22.957 27.5713 4.15632 14.7917 -133762 866382 751368 300895 -393361 280275 
163 1 24.6696 27.5213 5.81988 2.4403 -1.30707e+06 -339970 -1.00074e+06 409046 311377 -197166 
262 1 26.3868 25.7567 6.09501 5.42936 443354 502712 631028 231349 -119279 -533154 
215 1 26.4194 27.5679 4.09607 5.26252 -744919 -639754 -211095 280241 454686 -219405 
281 1 28.1143 27.5337 6.25541 6.0164 -345719 -1.01809e+06 1.01923e+06 -311665 39690.7 83124.4 
224 1 30.6139 28.6418 3.74084 5.54031 -697615 -683367 297057 -164689 44450.1 137496 
285 1 30.5229 26.9886 5.60535 5.56531 -133281 -1.12788e+06 154392 -296873 262356 52915.7 
286 1 32.308 28.7404 5.65116 6.22855 47669.8 -520403 -88479 -225168 20277.9 -251252 
223 1 32.4584 26.8926 3.87916 0.643371 -199364 357004 541798 -214053 -309085 146813 
2957 1 35.9587 26.7131 3.88281 0.481865 187586 -99845.3 -159564 -274581 -296539 53191 
2958 1 34.1959 28.5853 3.76509 0.158208 -705530 -545568 314214 109000 -152159 45365.6 
3027 1 34.1254 26.8441 5.69074 0.121945 -554175 175201 -106216 -498392 -297764 185553 
3028 1 35.9144 28.5098 5.61729 0.187143 -3462.64 -494970 116995 62392.7 -116529 -343215 
162 1 24.7796 29.3427 4.07949 2.29878 -969762 -661402 -635227 429659 490058 263958 
177 1 23.7607 31.6067 4.47677 12.5788 571219 1.10175e+06 1.29394e+06 114345 -209093 234971 
164 1 23.5335 29.7175 6.08564 18.3908 610485 606994 166393 366477 437746 696075 
179 1 25.4957 31.5447 6.23781 4.96308 -272265 565646 -490344 137158 -157504 9748.95 
220 1 28.2832 29.3087 4.08221 6.09003 -450485 16736.5 -76568.7 -54702.1 -77058.2 -226542 
181 1 26.4058 31.196 3.94421 5.17431 375787 -643524 542057 -660418 338553 -210430 
168 1 26.4585 29.27 5.8567 6.02276 -224549 -358078 -282635 72056.6 93124 -604185 
183 1 28.1767 31.0547 5.97251 5.17213 296249 -439118 826807 217716 112730 -420695 
282 1 29.8055 29.2117 6.13947 5.80174 22864.4 -1.24477e+06 351511 -13146.5 50525.5 -415840 
235 1 30.129 31.0301 4.09413 6.06705 -187791 -638853 107839 -682364 19675.6 -806909 
301 1 31.6038 31.0079 6.176 6.59849 663048 -411671 681336 730307 -344718 98997.8 
3045 1 34.1556 30.3731 5.52971 6.13494 179674 -36567.3 307916 -619028 -164322 -268075 
3046 1 35.8628 32.1185 5.42286 5.23894 -185537 -74221.7 599666 -80561.8 -148695 -114109 
2975 1 36.0364 30.2975 3.68268 0.17299 -116504 -202574 306892 -239939 -227958 -282973 
1425 1 23.7766 35.2514 4.25025 17.3497 244851 1.03575e+06 753019 238069 533560 -186930 
180 1 23.8066 33.5973 6.20536 15.6076 403406 909888 611265 -156063 -74498.6 53013.5 
182 1 28.0949 32.9139 3.94072 6.21876 -58829.1 -549478 -251447 -477044 257909 -55322.8 
178 1 25.5591 33.457 4.36913 5.10776 -380349 -158732 124128 215072 -187225 -8341.23 
1427 1 25.6386 35.3292 6.17679 0.437636 -98868.4 198725 136827 -247222 197378 95231 
1429 1 27.4047 35.1613 4.4385 5.16228 -189843 -804828 -209529 492950 210869 -202075 
184 1 27.3438 33.3023 6.23253 5.3299 249930 -214228 -278237 46384 -89898.9 62157.6 
1434 1 31.8534 36.1213 4.02869 5.57742 196511 561697 858629 -261700 -310621 -171923 
188 1 30.0012 32.7428 5.82783 6.06154 136956 -498844 595412 205922 234124 -273556 
240 1 31.8661 32.62 4.07285 6.41546 -227832 218076 529904 -766286 234266 12923.3 
1431 1 29.1039 35.1017 6.32189 4.94593 292481 -66013.8 -224144 -122680 60329.3 57083.5 
1433 1 30.0159 34.5602 4.08168 5.19854 324319 -229363 -234055 -563428 219897 262649 
1435 1 31.8112 34.4472 6.06671 4.88194 -181130 -148958 547503 437910 424701 -226439 
2994 1 35.5691 36.0965 4.04745 5.50993 536311 -348219 -65948.1 -99906.7 311636 -435862 
1440 1 33.6035 36.1265 5.8575 6.61043 -228061 -4534.22 172805 -144628 225544 -295820 
302 1 33.5535 32.8909 5.96021 4.36127 -103037 462360 955415 809883 11147.4 200460 
255 1 33.7141 34.3985 3.97319 5.87106 630889 -681677 97435.5 130357 176399 4677.57 
3063 1 35.4543 34.5446 6.12228 5.90294 397729 99534.7 330408 241053 -27918.3 -51047.9 
196 1 24.4918 24.2824 10.0776 22.0228 -539439 440001 1.10177e+06 -560959 -324473 -209470 
263 1 26.138 23.9774 8.13726 12.3445 1.12306e+06 775612 1.6443e+06 60222.8 -2365.51 -270192 
329 1 28.0336 23.9272 9.86828 10.0691 1.05709e+06 319274 917336 285118 185845 -115076 
267 1 28.7424 23.4866 7.5115 13.2234 726718 22665.8 475094 -100822 151701 -59629.7 
333 1 30.5677 23.3931 9.32653 14.8315 1.04825e+06 363410 1.27876e+06 -248888 456694 -33216.3 
272 1 30.4995 25.2605 7.46054 6.05666 -401800 -692009 79804.4 -754825 112404 -219929 
334 1 32.3766 25.1136 9.43484 5.66924 843544 178655 537144 -113876 -33824.8 -155293 
271 1 32.3634 23.4188 7.64147 16.0334 1.15278e+06 221207 1.01606e+06 -407951 476910 -165287 
3011 1 35.811 23.3389 7.37484 13.6551 567340 48034.3 834433 268136 -27959.1 436175 
3081 1 34.2719 23.3696 9.49921 15.2303 1.53012e+06 562905 1.42099e+06 -43670.3 103301 -85038.1 
3012 1 34.1417 25.0791 7.53626 0.183746 -474035 -813818 422886 -108357 80043.1 -28327.7 
3082 1 36.0446 25.1785 9.41125 0.288957 -59834.8 -448241 844343 53786.7 -55742.6 374132 
209 1 24.2899 25.6818 7.89371 9.62114 237188 317940 1.37139e+06 -311224 -175885 -61527.8 
225 1 23.2715 27.9686 7.71951 19.7039 736023 627106 564956 197228 755101 364872 
212 1 24.3781 27.0675 10.064 9.61976 378145 1.21641e+06 1.44094e+06 295421 315027 71670.4 
210 1 26.0308 27.3359 7.98032 4.74673 509389 -339989 1.08691e+06 -304511 -102958 -287387 
268 1 28.0291 25.787 8.02324 5.43428 385830 168546 206987 359259 -27594.7 123634 
211 1 26.3358 25.6744 9.97155 1.05759 -1.06483e+06 -973888 1.01708e+06 -326933 127221 227924 
216 1 28.0122 27.5048 9.96986 0.622483 196371 668.902 717342 -78603.1 -176426 141548 
330 1 29.8724 25.7683 9.84791 5.50239 997916 329384 131440 275894 131302 -348150 
283 1 29.9392 27.5889 8.07797 5.04059 789596 257422 668752 11906.4 35763.4 68260.5 
349 1 31.8343 27.6045 10.0485 4.71638 721072 936322 491593 -7424.2 105393 -39133.6 
287 1 32.3008 26.806 7.49772 5.88037 -76018.7 -36680.2 737105 -322912 205059 -378544 
3100 1 36.0312 28.6521 9.42678 5.58708 -125614 -393588 561608 -183834 243697 252265 
3029 1 35.9131 26.7895 7.48513 0.213192 135350 166095 14906.3 -133763 24602.7 238132 
3099 1 34.3034 26.9407 9.43846 5.53475 273076 213759 375074 33801.4 339064 -35159.3 
3030 1 34.1269 28.6678 7.4887 5.91244 -242003 -173393 304493 -138598 311862 -208403 
241 1 23.704 31.6961 7.88963 14.7522 124584 1.69949e+06 1.19565e+06 11105.2 27197.2 236146 
228 1 23.6282 29.518 9.65733 16.8009 42581.1 1.35069e+06 1.17797e+06 -143921 488219 -14142.6 
226 1 25.2771 29.6378 7.92059 6.33381 -683709 -95024.3 -1.07785e+06 458182 490571 68763.3 
243 1 25.3032 31.4337 9.72119 5.64171 -529693 802414 -179297 -5520.72 726458 -5479.61 
227 1 26.0575 29.0114 10.1898 5.46829 315813 668160 652135 190975 -151603 43936.1 
229 1 27.7559 29.1596 8.19259 5.60054 371788 -42935.1 875646 -286752 5106.09 218592 
245 1 27.0234 31.5163 8.11538 6.00796 -543909 -433410 -1.44775e+06 418761 237827 12935.8 
232 1 27.9016 30.8058 10.2901 5.93743 259640 364761 443905 -81341.6 -96808.9 449425 
231 1 29.7833 29.2325 10.0656 0.749143 -172621 -254769 598782 -517363 12545.8 116181 
288 1 31.8032 29.3163 8.02888 4.86906 229064 448994 123328 -28913.5 136572 -206816 
230 1 29.6512 30.7796 8.0262 4.69655 901416 447404 960613 -208012 -250800 -116581 
236 1 31.6226 30.744 10.0931 0.626971 -696467 115241 1.38539e+06 -342474 141053 -204815 
247 1 29.7804 32.375 10.2738 5.08772 251056 360344 837071 -345802 -215315 613999 
350 1 33.6434 29.4247 9.82938 1.27258 -41060.5 224728 287437 223566 11692.7 -70472.3 
303 1 33.5854 31.1031 7.9069 4.3581 668010 594655 734820 12639.3 39159.6 2130.08 
3117 1 35.4802 31.1035 9.87482 1.03612 -143418 363341 1.14033e+06 173569 175312 -206593 
251 1 33.3921 32.3847 10.1739 1.09244 22060.5 441314 1.60056e+06 -680270 7809.08 -69426.5 
3047 1 35.8983 30.3065 7.38976 5.57981 -313883 495128 623025 -165214 79100.4 -136559 
1497 1 23.8487 35.215 8.08275 16.6436 132030 628030 1.23705e+06 23385.1 -19231.7 -553010 
244 1 23.7285 33.4424 10.1004 14.5848 534726 1.50155e+06 1.7857e+06 -66136.9 -262222 -45108.4 
242 1 25.5168 33.4481 8.03473 0.310752 -535051 -273223 659915 380719 -454827 -39978.3 
1499 1 25.5761 35.1394 10.0212 0.267942 -709513 -78544.4 168672 334159 -136483 -240751 
1501 1 27.2745 35.2183 8.108 0.401282 21099.3 131181 288297 -161523 -1601.46 9565.65 
248 1 27.232 33.2983 9.88597 5.23078 118804 -66937.2 -563902 152179 327740 -593966 
246 1 28.9199 33.2367 8.11104 5.96867 -161461 304915 -601117 57617.4 -88028.5 56075.2 
249 1 31.4357 32.5921 8.13885 4.76878 646314 -431431 1.71343e+06 -330057 -42990.5 -411201 
1503 1 29.1192 34.9696 9.92328 5.45882 -794962 127094 -866914 -155756 409196 -93850.3 
1505 1 30.8154 34.8861 8.22144 6.6539 -891949 -906889 -1.687e+06 726115 470957 -162740 
252 1 31.494 34.1323 10.3878 5.50528 346755 247224 -165353 -351.392 -101960 659432 
3048 1 35.3688 32.9642 8.02809 1.58033 254712 794876 397776 -76919 76969.4 50952.2 
250 1 33.1966 34.2424 8.28027 5.38238 -373303 291043 1.68759e+06 -443782 -243647 -122749 
256 1 35.1613 33.9951 10.2171 4.36389 -682831 -165477 569177 -695002 221165 -742734 
1507 1 33.4964 35.8466 10.3233 5.30667 1.01225e+06 905338 1.18044e+06 331726 -67170.7 152850 
1509 1 35.1017 35.8442 8.13505 4.81205 -224889 44374.3 1.30997e+06 -440642 24256.4 -640455 
260 1 24.0095 24.8372 14.4439 19.381 -9823.22 -176884 116497 140736 84864.2 -446278 
257 1 24.1531 23.3708 12.5712 43.0651 -510377 220.729 516200 142159 450805 -254772 
258 1 26.2436 23.9048 11.7162 9.19895 -332593 451693 801649 -315061 162487 298734 
264 1 28.2042 23.7421 13.5986 10.5047 933776 365368 1.3734e+06 -125726 346697 166681 
259 1 25.8477 23.1842 14.3498 16.5031 -307086 -526223 220076 46515.2 1593.7 12276.9 
331 1 30.012 23.9848 11.7915 9.65972 507190 128016 912151 340720 5886.27 -330762 
397 1 31.7815 24.0078 13.6556 8.64627 201378 28559.1 520006 358373 158564 -335158 
335 1 32.4528 23.3857 11.32 15.5525 789191 302059 945455 -348729 311521 103646 
3154 1 36.0824 25.2072 13.2463 5.52294 593887 -89272.4 366891 -254892 160829 -602515 
3083 1 36.0118 23.5292 11.4566 14.5995 906674 138609 914634 -199546 82106.2 -291752 
3153 1 34.1656 23.5824 13.1833 12.3624 470122 -771685 772437 77409 545168 39569.8 
3084 1 34.1194 25.1714 11.2974 6.43171 576848 -44649.7 645105 -47716.2 -52947.3 312778 
276 1 24.5559 27.2433 14.0742 9.22452 -62970.6 -135353 -128122 -416612 -90485.6 -383666 
273 1 24.436 25.7603 12.1538 11.4785 307131 162613 -110320 -414382 -223557 -77266 
289 1 24.3261 28.8129 12.1293 10.6069 591819 1.49039e+06 1.45164e+06 142293 77480.7 227075 
275 1 26.3705 25.4526 13.8264 6.04549 22941.7 -926494 824758 -355404 49367.9 628538 
277 1 28.1917 25.5776 11.843 0.440965 40020 -106508 637339 208254 -121262 -7636.97 
274 1 26.3588 27.3092 12.1868 1.3414 -377077 -218291 304605 -361453 -166288 -18736.5 
280 1 28.0791 27.1709 13.9367 0.596855 -2649.97 -126613 434144 -15037.9 -488484 169416 
291 1 26.2456 28.986 13.9208 0.388649 148868 -385736 -57428.2 -299749 94739.8 -221479 
279 1 29.8958 25.5547 13.7125 0.402688 -723492 -363110 599986 118047 -199441 -408450 
336 1 31.7223 25.8472 11.8613 5.28674 70959.3 2910.74 98778.2 560508 235848 -148716 
278 1 29.903 27.3601 11.6967 1.36782 -937912 -919481 443741 -20864.7 -215524 -239058 
284 1 31.6674 27.2213 13.8295 1.00339 -531001 -785649 89415.7 952.769 -164853 50719 
295 1 29.8635 29.0042 13.8267 0.446418 -164127 -73459.1 -78361 149951 302236 433966 
3101 1 36.0326 27.0293 11.3157 5.52951 -22820.7 46041.2 -25907.7 305969 29793.9 34519.8 
398 1 33.5668 25.7822 13.7985 5.14144 23109.4 -356775 1.08974e+06 653536 51456.1 -744766 
351 1 33.6821 27.7404 11.7526 1.23066 -133931 852984 265700 202014 -235601 -435864 
3171 1 35.3948 27.6166 13.706 1.97857 626181 871051 402019 473875 -104965 -31684.5 
299 1 33.3462 28.9904 13.9156 1.51369 -927581 -1.01254e+06 -327973 -71514.9 -81643 -93844 
305 1 23.8356 31.3281 11.691 13.7198 218067 1.44821e+06 1.18895e+06 -177338 347900 336060 
292 1 24.3087 30.6829 14.1147 9.90336 480651 1.41613e+06 1.37124e+06 -189688 -260420 115483 
293 1 28.0642 29.0167 12.0478 0.314438 -455475 -326023 378216 -142014 12727.9 74193.3 
296 1 28.1136 30.7169 14.048 0.389463 -57215 -418156 542959 -193452 26550.3 7409.56 
290 1 26.211 30.6369 12.1375 5.54706 425441 380799 420259 419506 130645 135963 
307 1 26.1606 32.3866 14.0077 5.11482 420474 668940 291610 304998 4438.61 297510 
297 1 31.5646 29.0281 12.0646 1.4686 -1.37619e+06 -796021 -227699 -115718 60299.5 -317444 
311 1 29.7493 32.4747 13.9626 0.750285 -300248 96173.6 262857 -288801 98660.2 -44920.7 
300 1 31.6822 30.717 14.0089 0.271977 -255951 -705631 -199153 84807.2 -46135.2 219782 
294 1 29.8707 30.7431 12.1201 0.299055 -34076.8 -1.12554e+06 -355540 -176779 9437.47 478548 
313 1 31.5878 32.5093 12.2772 0.742602 53876.3 -50746.9 95365.5 -644359 549.427 363719 
315 1 33.497 32.4056 14.0159 0.35037 -436981 -596830 128795 -18624.6 62208.1 697756 
317 1 35.2516 32.2233 12.1942 4.48737 -953738 293492 483785 -426575 148980 -152934 
3102 1 35.5203 29.379 11.8521 1.32764 -65529 -48446.6 863462 287698 217909 -116252 