ITEM: TIMESTEP
13800000
ITEM: NUMBER OF ATOMS
5780
ITEM: BOX BOUNDS pp pp pp
3.0132505526271616e+00 6.9286749447388374e+01
3.0132505526271616e+00 6.9286749447388374e+01
-4.5991995805903461e+00 7.6899199580605895e+01
ITEM: ATOMS id type x y z c_csym c_2[1] c_2[2] c_2[3] c_2[4] c_2[5] c_2[6] 
65 1 22.6834 21.3754 -2.29821 34.4355 -360838 -574224 -701372 -265189 388363 239439 
3 1 24.1905 21.399 -4.04382 13.0754 -639146 314375 -870966 -116616 464339 183466 
69 1 25.6467 21.3578 -2.15087 12.3756 -296308 72412.8 -513329 378168 139011 257359 
7 1 27.4041 21.2971 -3.89551 14.4612 483970 435819 483787 191270 -65005.6 -30444.5 
4 1 22.3103 23.1533 -3.86358 16.7619 330876 5870.12 414560 -19300.5 -178635 570795 
66 1 24.1096 23.2497 -2.11779 5.3926 -1.38796e+06 -1.24603e+06 -406718 -470098 506078 236667 
81 1 22.2253 25.0251 -1.98792 14.3036 348020 816750 1.03558e+06 -27647.2 -10882.8 241519 
19 1 24.034 25.0174 -3.85454 5.40788 -854702 -1.06982e+06 -358959 70682.8 -259946 272399 
8 1 25.8532 23.2782 -3.79316 6.35873 -867374 -355557 41738.4 -89854.3 237790 3231.59 
73 1 28.0097 21.7673 -1.4651 11.1302 507237 384801 666023 112921 614749 -34657.1 
70 1 26.5014 23.7644 -1.39546 5.48899 -96163.2 316943 -746479 -25930.4 -137891 141819 
12 1 28.151 23.6898 -3.24378 6.3531 -1.25211e+06 270498 188488 -555.461 -28705.8 61272.1 
77 1 31.4527 21.8681 -1.38142 14.5736 824775 92034.9 924074 294304 -34409 125335 
11 1 29.7736 21.9121 -3.31128 9.54343 205068 -403809 516078 165408 74757.9 210002 
74 1 29.8081 23.6307 -1.38901 0.283098 473591 189750 574846 396287 -54355.3 -142378 
16 1 31.7108 23.5185 -3.25655 0.478651 126694 -632161 76295.6 109788 -111851 -199463 
2793 1 35.189 21.543 -1.49968 12.3194 1.15888e+06 909662 1.09749e+06 61012.6 -189588 19186.3 
15 1 33.3624 21.7178 -3.11127 15.0278 805224 85639.6 1.39579e+06 187509 -376295 -345225 
78 1 33.4106 23.5101 -1.37821 0.346785 197249 -368863 -17322.3 63224.7 -149604 -144837 
2724 1 35.0905 23.5417 -3.2743 0.354791 513622 440440 561061 -149372 -225015 106471 
20 1 22.1875 26.669 -3.78699 13.4721 -556311 346454 523383 87356.4 31473.5 405805 
82 1 22.7603 27.3748 -1.22409 8.9766 -94979 -83968.2 430208 51352.8 162826 154495 
24 1 24.4062 27.3418 -3.16935 5.16447 -408406 -548066 -111925 86407.7 -48345.6 67315.6 
85 1 24.5642 25.664 -1.4068 5.66277 -581548 -352328 172368 -662699 41001.7 69365.2 
89 1 28.1692 25.6703 -1.3017 1.07561 -299619 -54804.8 289807 -514819 -75506.8 -21790.4 
23 1 26.3122 25.6515 -3.15431 5.63517 -138808 173835 218514 -264030 84776.1 -252299 
86 1 26.2569 27.2755 -1.1946 0.449151 -773795 -1.40242e+06 -93706.6 -447690 33363.9 -153213 
28 1 28.186 27.3388 -3.20756 0.402582 50547.8 -409179 331550 -875776 -4160.33 77088.2 
93 1 31.7779 25.3375 -1.42863 0.502067 -60041.7 152913 277476 -106719 -55928.3 -52735.5 
27 1 29.9899 25.3637 -3.33734 0.60582 392374 339989 516628 -296450 -106205 161965 
90 1 29.9613 27.2301 -1.33329 0.13748 -255614 -24687.2 368564 -662563 -141236 330135 
32 1 31.7021 27.2362 -3.2601 0.118606 6157.41 -50727.4 389864 165496 -212171 183468 
2811 1 35.1636 25.3709 -1.47078 0.255614 369930 524969 711912 -53763.8 -165447 10851.8 
31 1 33.3846 25.4557 -3.31117 0.33623 -396255 194124 -16611.9 252515 230750 4930.32 
94 1 33.3715 27.1774 -1.3377 0.369294 -324784 -516804 209612 -442597 117437 -227582 
2742 1 35.2417 27.1979 -3.29902 0.233133 10968.6 -433994 31084.2 -59981.6 -130861 -268245 
2829 1 35.2186 28.7695 -1.38898 0.581785 -641938 -202196 10499.3 -240017 -402876 -155122 
101 1 24.5785 29.0696 -1.21595 6.0208 -384925 -338667 37470.2 -103188 151189 65656 
35 1 22.6663 29.1195 -3.05325 9.49844 319575 531264 873879 102536 87640.4 268547 
36 1 21.9793 31.4994 -2.35513 16.499 985984 1.25537e+06 1.38324e+06 -72282.2 22654.6 42101.7 
40 1 24.5094 30.8662 -3.06006 6.59189 835052 10905.5 440919 3973.24 164217 -235160 
97 1 22.1174 29.7175 -0.561614 15.5126 367856 568729 957048 -126927 -197349 165779 
98 1 23.9304 31.4268 -0.554581 5.51238 -202081 -217454 107303 36900.3 118927 49316.1 
105 1 28.0949 28.967 -1.26094 0.262129 -138389 221813 -391197 -14660.1 -101660 -154733 
39 1 26.3369 29.1127 -2.95805 0.676418 20265.2 340501 -8095.42 64136.7 63676.7 -66868.6 
102 1 26.3167 30.844 -1.19283 6.06475 -137585 -464030 -312304 -217411 219890 -458600 
44 1 28.0501 30.9427 -3.02512 0.448448 47211.9 397537 693760 -72586.2 -47927.5 83281.9 
109 1 31.7104 29.0264 -1.30624 0.236608 -503999 -228189 579059 30817 169453 -66359.1 
43 1 29.8296 28.9931 -3.15478 0.2655 41729.7 -98544.4 555282 -693509 109050 2643.44 
106 1 29.9531 30.8314 -1.3179 0.372929 315670 67820.7 341195 -66067.8 117890 155173 
48 1 31.7138 30.8007 -3.21833 0.218341 160879 144262 197648 70695.2 274390 24676.4 
47 1 33.5261 28.9972 -3.19945 0.252472 -412082 -173852 -231168 -69527.6 -16774 40031.1 
2760 1 35.2642 30.7445 -3.13626 0.206346 -725185 -321606 83456 104613 -166494 -163567 
110 1 33.5247 30.6666 -1.29751 0.138775 126410 160350 286142 -124247 350123 -171935 
51 1 23.9244 33.2081 -2.50228 5.70991 394236 757554 1.05258e+06 250972 155904 181815 
52 1 22.1507 35.1042 -2.31075 17.8641 535017 913826 1.29183e+06 -333382 93818.5 146497 
50 1 23.8617 34.9743 -4.32374 6.30889 -542417 -83698.7 562328 297688 -129643 215580 
49 1 22.031 33.3107 -4.19761 14.4164 436635 791184 1.42104e+06 -242425 -183624 -108884 
121 1 28.119 32.6238 -1.06315 6.22667 -528843 -617967 253721 -223572 -14980.9 -113076 
55 1 26.3192 32.6827 -3.06873 6.51267 -88789.5 -554831 646722 232548 307085 10431.7 
56 1 25.808 35.0539 -2.38015 5.66058 808647 196076 419337 -223594 146956 -155965 
60 1 28.2079 34.2856 -3.05879 6.02876 -356923 -46733.3 571014 -156608 -104599 -123561 
117 1 25.7798 33.2247 -0.582604 5.61574 199621 -242795 447922 318302 240034 69632.3 
118 1 27.6709 34.9814 -0.52939 5.2848 -396858 -754331 695101 85642.9 80914.3 -245163 
125 1 31.766 32.4814 -1.16284 0.306771 -50521.8 63195.3 260040 -34146.1 -27147.1 -326238 
59 1 29.9529 32.5943 -3.03527 0.287537 -193980 -554767 443164 28515.1 79075 59711.2 
122 1 29.9252 34.2342 -1.15303 5.80824 -822922 -292475 -238564 -112963 -49514.5 110146 
64 1 31.6425 34.3514 -3.0552 0.351088 -20107.8 -181102 704987 -167101 94320.7 50009.6 
1365 1 31.718 36.1356 -1.19316 5.94757 -67194.6 81448.7 50482.5 158121 166699 -142164 
1291 1 29.927 36.0429 -3.0304 5.6707 -403963 -557557 282423 79528 -45181.6 -23321.8 
2847 1 35.4005 32.4852 -1.26693 0.300753 -422475 -90266.2 -276989 -59005.2 -370000 -314432 
63 1 33.5401 32.5086 -3.09982 0.172225 439454 332658 774413 -105210 78154.3 180970 
2778 1 35.3284 34.3117 -3.18965 0.230223 -596609 -381538 211510 -192503 113892 -387098 
126 1 33.5661 34.3812 -1.2395 0.345218 312065 -46517.9 90340.8 -304223 23931.2 244822 
4242 1 35.4032 35.9767 -1.28161 0.0889009 -725328 -773406 -318091 -400543 -140480 -57.6567 
1295 1 33.5492 35.9928 -3.04246 0.380671 -266825 -292401 10588.1 327901 -204951 187144 
67 1 24.0977 21.3548 -0.333655 22.5828 -793033 78819.2 131034 323546 -82996.2 21442.6 
68 1 22.3563 22.9943 -0.438339 22.1871 51336.2 605801 1.30859e+06 411853 436399 197615 
130 1 22.7515 23.6168 2.24787 12.3806 457067 699905 1.69957e+06 121908 36890.8 169514 
72 1 24.6822 23.7072 0.357604 5.93413 418734 19654.2 555085 -390684 19350.8 -36271.6 
133 1 24.5046 21.9568 2.17953 12.3788 745575 349710 1.79205e+06 102791 12758.7 223253 
137 1 28.1388 21.9372 2.56549 14.3793 511247 -46655.7 1.13846e+06 93540.8 -189723 -420395 
71 1 26.3964 21.9291 0.332187 9.4411 -65319.8 -297859 842044 -334437 599494 171981 
134 1 26.3794 23.596 2.3573 0.394707 -139014 -41623.5 727866 97309.5 205851 125198 
76 1 28.0825 23.6716 0.446432 0.496903 -323275 -55532.4 329928 -97816.1 -108250 -106664 
75 1 29.8093 21.8437 0.609983 14.8413 957044 233737 1.11251e+06 -76655 3574.33 -312226 
141 1 31.7109 21.7729 2.21482 14.607 1.0217e+06 235063 788800 -15024.3 -402139 519046 
138 1 29.95 23.6171 2.32717 0.342943 -567617 -543487 -191082 -144606 615328 -104235 
80 1 31.6151 23.5848 0.582969 0.534948 -318614 -519147 -17408.7 -215267 398826 179891 
2865 1 35.0043 21.8904 2.25464 13.6041 1.2541e+06 -26430.8 781016 259228 -281768 159229 
79 1 33.4219 21.7062 0.291933 14.8972 1.08592e+06 544217 1.09359e+06 -222499 -23690.3 495474 
2796 1 35.2651 23.4425 0.370389 0.708284 603119 171980 766829 -267241 -251237 462948 
142 1 33.371 23.6829 2.41685 0.740286 -636817 -639796 376185 434943 -449574 291134 
149 1 24.556 25.4034 2.26598 6.58295 359932 190052 662967 -297732 82305.1 315563 
83 1 22.6186 25.5432 0.596947 10.6227 760977 848515 965271 -82027.1 -127381 239436 
145 1 22.1447 26.1363 2.96785 14.6955 437185 988790 777780 -396952 -35910.5 262023 
84 1 22.2321 27.9182 1.18853 14.1686 -389413 265373 320636 38413.9 -133003 212177 
146 1 23.9196 27.8266 2.99994 5.22375 -341115 480280 314269 -345751 -166751 17080.5 
88 1 24.5113 27.2749 0.623538 5.24641 -436491 27538 -406452 57386.8 425466 134790 
153 1 28.1782 25.3255 2.43672 0.314987 150238 35057 264212 126067 -83000 356851 
87 1 26.3894 25.4891 0.524137 0.145332 -48156.3 -167311 53181.7 -138280 309798 92939.7 
150 1 26.357 27.1 2.52025 5.6951 400917 -47192.5 588396 -154091 -54944.2 35689.9 
92 1 28.1933 27.2558 0.594393 0.208854 208699 -180479 120170 -70750.9 -84155 -341903 
157 1 31.6704 25.3955 2.4064 0.139213 -634826 -557189 464976 140888 -10461 212170 
91 1 29.9467 25.4225 0.501924 0.181131 78072.2 3776.56 433336 9060.55 -300136 219727 
154 1 29.9467 27.173 2.4931 0.101462 261639 484949 617075 184328 67108.4 173465 
96 1 31.7058 27.1478 0.515448 0.114832 -492999 -231752 236931 -423779 52389.4 71484.1 
2883 1 35.2463 25.2559 2.38724 0.2286 -654751 -311237 120640 -195913 -30118.5 548265 
95 1 33.402 25.2736 0.458882 0.385103 276144 230749 133611 -236326 -131788 74121.9 
2814 1 35.2436 27.0572 0.633187 0.556473 -904270 -1.02935e+06 405073 733494 16212.1 201812 
158 1 33.4865 27.035 2.41917 0.299462 -141889 -125235 507739 -44076.6 53478.4 308268 
111 1 33.5166 28.7536 0.59452 0.593558 -537802 -473241 17199.5 185294 -111566 8029.05 
161 1 22.2271 29.7166 3.18355 17.9836 554224 1.32973e+06 1.71272e+06 -200419 125285 99362.7 
99 1 23.9805 29.7184 1.19593 5.50658 56697.5 66527 272749 -254679 -98193.3 266277 
100 1 22.1714 31.5724 1.28704 16.6786 -28781.4 897385 1.295e+06 -597555 240035 17987.3 
162 1 24.0743 31.3364 3.207 0.33814 -108102 266916 250637 -256907 415450 8061.98 
169 1 28.1169 28.9378 2.4933 6.08232 -25290.4 -449217 529194 12323.1 130121 -65349.7 
103 1 26.3545 28.9846 0.571633 6.16732 -301978 -25422.6 2503.23 -167544 -89289 -311984 
104 1 25.7883 31.448 1.17589 5.12537 -551673 -135605 30867.1 -38869.7 -280778 -86566.5 
165 1 25.7679 29.4994 3.09296 5.87623 -254451 62548.5 711806 -172662 -40671 -68442.7 
166 1 27.5144 31.2638 3.02245 5.07013 378106 -355897 368447 -260224 44236.2 260314 
108 1 28.1865 30.6849 0.585444 5.84907 -103200 -70397.1 316415 -16294.5 14909.6 1382.23 
173 1 31.8173 28.8942 2.47169 0.262339 199214 -99155.7 538219 162983 47729 28057.8 
107 1 29.9787 28.9997 0.571122 0.163946 43192.1 -26394.3 397643 80372.9 87799.9 -392486 
170 1 29.9954 30.5719 2.46924 6.07879 150948 206660 599556 -9505.3 -208409 -358595 
112 1 31.9036 30.6465 0.656691 0.698227 384432 -242819 -12478 -240189 189082 -188236 
189 1 31.8229 32.4486 2.37064 5.9524 221917 -199502 502475 111940 7194.11 -72013 
2901 1 35.1715 28.9201 2.46669 0.352027 -244420 -234570 -571900 161689 276526 387502 
174 1 33.5489 30.6906 2.60232 0.481685 -543570 -228909 199547 539146 40107 53429.1 
2832 1 35.2663 30.6484 0.656875 0.257216 -579377 -619075 357981 728793 -166478 297849 
113 1 22.3137 33.359 -0.509259 14.5554 73975.2 716733 801892 -98522.5 -70545.6 209124 
114 1 24.0749 35.0351 -0.366914 0.464546 -851857 232105 698367 -37718.3 158169 195788 
115 1 23.9929 33.0638 1.35134 0.695862 -1.19808e+06 -540097 114040 -58058.2 -247178 -44631.9 
116 1 22.4187 35.0386 1.42568 14.6496 -19300.7 997808 680321 -129440 177946 128417 
177 1 22.2747 33.2016 3.27306 18.7972 633821 1.22209e+06 1.31878e+06 -224551 176372 -5678.58 
178 1 24.0782 34.8784 3.31867 0.384701 -669148 -320197 449447 558676 209413 263130 
181 1 25.7728 33.1683 3.16145 0.710337 -809729 -548378 -308280 -297563 575486 169177 
119 1 27.5902 33.1302 1.36695 5.7326 -259890 -211714 -487302 -136616 -20387.1 -291014 
120 1 25.7997 34.8695 1.37861 0.253867 167521 -39903.1 -228109 42624.6 -407713 354752 
182 1 27.5942 34.7111 3.24709 0.580011 -816803 -295546 -154272 2395.69 -115448 -259630 
123 1 29.9651 32.4891 0.63055 6.25528 -168421 248282 111087 -506090 -188301 92845.9 
185 1 29.3653 32.9573 3.16894 6.26643 376883 -116566 30888.4 24997.2 -105375 -346196 
124 1 29.4227 34.9186 1.39957 5.73041 -393626 44814.8 539840 -16067.8 -72239.2 -255533 
186 1 31.2287 34.7869 3.12895 6.32475 410948 457899 428626 60980.3 101850 -162652 
128 1 31.7251 34.2146 0.57595 5.80733 -24633.3 -375339 58849 -86820.2 -54451.4 -201050 
127 1 33.6043 32.4779 0.606239 0.161193 -285782 200983 356491 -12535.9 -42503.6 -93773.1 
2919 1 35.3299 32.5832 2.4435 0.315299 -238778 -174433 -225322 370799 -34724.8 -109879 
4323 1 35.3741 36.0201 2.40173 5.43654 -1.25048e+06 -1.51106e+06 -97167.4 -161740 350073 -259686 
2850 1 35.4035 34.2711 0.565917 0.154738 -773113 -1.10177e+06 -434506 173398 63743.6 48959.5 
190 1 33.6013 34.2833 2.49206 6.61036 -521863 -798869 602922 333697 -207067 96102.5 
1367 1 33.5774 36.0678 0.621721 6.39146 -137932 -279009 99805.1 -62043.6 -37891.3 -214600 
131 1 22.8876 21.9479 4.27496 48.2954 869318 430765 1.51475e+06 -40231.1 -360193 91109 
129 1 22.172 24.2758 4.63509 16.8217 182309 -149360 -40662.9 -68304.6 310746 -240477 
193 1 22.1734 22.9233 6.65727 39.253 695606 931728 921022 136667 -294172 415546 
194 1 24.1214 24.5658 6.79939 2.43744 -1.98321e+06 -1.03549e+06 -763453 345405 98528 546326 
197 1 24.5473 22.2562 6.12022 11.8629 106664 -618869 -20721.6 -424339 381768 159313 
136 1 24.5631 23.7395 4.17951 5.89528 -415719 -1.1847e+06 650703 137018 92494.5 504247 
201 1 27.8489 21.9317 6.10078 15.531 1.47249e+06 382133 1.66532e+06 5759.22 -567572 48172.8 
135 1 26.1426 21.9672 4.34146 15.3572 776850 300333 639000 697060 159037 77625.4 
198 1 26.3248 23.8731 6.19083 5.84695 -686154 -911111 523540 29604.8 79177.2 60775.3 
140 1 28.2371 23.6937 4.23445 0.803471 647060 -476750 -95975.3 -175778 -260525 95287.9 
139 1 29.9783 21.7994 4.18857 14.4248 1.3295e+06 574698 1.49758e+06 -169625 -542989 101916 
205 1 31.5091 21.7139 6.27539 15.6292 1.10147e+06 637221 988256 213974 -151216 -463371 
202 1 29.7747 23.5591 6.21474 0.396106 368780 105932 420226 -20849.1 -458222 178834 
144 1 31.6167 23.6733 4.27349 0.419349 -381803 -651231 683368 455784 -199907 -32447.9 
2937 1 35.0074 21.7409 6.0474 17.3061 1.04488e+06 32699.7 1.5891e+06 113455 -236638 283392 
143 1 33.1589 21.858 4.26414 13.5792 897223 -168018 926143 333055 -323376 -208545 
2868 1 35.092 23.4722 4.19754 0.295336 -571692 -705959 -262361 143353 -303501 136049 
206 1 33.4173 23.5668 6.07134 0.589692 -5564.8 -587427 38018 714890 -92544.7 52410.8 
132 1 21.9386 25.5299 6.65147 23.2358 -386315 792148 653296 4896.52 7035.12 -800017 
147 1 23.866 26.0458 4.91761 5.28314 -101355 -508669 272744 -307870 22789.4 74677 
148 1 22.2258 27.9396 4.97786 13.5186 332956 1.10116e+06 1.16945e+06 -135149 -309.329 69691.1 
209 1 23.5601 27.2525 7.05767 4.34071 -963878 -314571 410114 -1.09687e+06 -236991 -770553 
210 1 25.259 28.7608 7.37685 6.12594 -691916 -1.26748e+06 1.0296e+06 -1.06897e+06 -264135 -22514.4 
151 1 26.3397 25.4364 4.32436 5.59676 572760 -629213 385577 -79400.6 94711.7 555232 
217 1 28.2204 25.5785 6.18003 5.80398 -267997 -43133.7 507801 -276746 26249.1 280964 
152 1 25.6299 27.6908 4.97269 4.98271 438623 -1.09768e+06 439948 362674 -120200 293138 
213 1 25.8701 26.2163 6.86525 1.09629 -393388 -1.13975e+06 -143204 -581421 182414 197532 
214 1 27.5538 27.9477 6.84814 0.267657 -473082 -236583 663397 -488951 38963.3 122052 
156 1 28.1998 27.2243 4.35747 5.91921 239209 -252628 438425 -157432 35079.8 503481 
155 1 29.9303 25.433 4.34121 0.140308 -642147 -337832 477707 43668.4 36769.7 305537 
221 1 31.679 25.2814 6.24659 0.355198 -229117 62021.5 -232251 38509.2 -321072 181832 
218 1 29.9635 27.2596 6.37064 5.2775 -377824 -216671 -31817.1 -345827 -130079 267493 
160 1 31.6717 27.2047 4.48337 0.503996 350579 444349 829476 -20515.5 -68188.5 -11904.4 
2955 1 35.2307 25.3731 6.16691 0.378818 -415518 -193953 219750 57183.3 -304476 172704 
159 1 33.4834 25.3178 4.38288 0.333512 243103 -193813 -3922.79 9841.76 -93397.5 351501 
2886 1 35.3462 27.1504 4.27143 0.643405 -112021 -486125 298511 243162 -112819 133705 
222 1 33.4599 27.0616 6.34865 0.474122 11269.1 -290723 276586 106310 -365008 307403 
2973 1 35.3245 28.7811 6.27063 0.542539 -132877 120264 214010 254639 -49410.1 107379 
225 1 22.3558 29.5586 6.94227 15.648 1.03116e+06 1.57578e+06 1.21009e+06 -50423.4 362942 -29142.6 
163 1 24.1027 29.4907 5.14265 1.64928 -336421 -61661.9 1.08877e+06 531566 335451 -293270 
164 1 22.6039 31.4328 5.13684 13.2364 130086 687505 508100 -44436.7 564036 -359603 
226 1 24.4972 31.0408 7.17339 5.77637 -244987 386220 662924 682660 325274 -323328 
167 1 27.4399 29.5709 4.98292 3.67822 6466.03 -462530 452095 856596 -310489 289804 
168 1 25.8929 31.2823 5.06409 3.868 -782675 -786676 806609 641181 132977 -44255.5 
229 1 26.8876 30.5407 7.36975 5.90711 -1.09911e+06 -219484 1.0799e+06 -1.17185e+06 -320235 -111706 
230 1 28.6126 32.0866 7.32536 6.19705 -208582 -142255 511795 -802473 48281.7 370730 
237 1 31.8163 28.993 6.28234 5.80046 369407 -90206.4 336672 -111502 -230308 -52839.7 
171 1 29.9307 28.9409 4.5033 5.65412 16507 -776566 454342 -3134.13 40872.1 -19082.8 
172 1 29.3292 31.2436 5.02399 3.80873 62513.3 -1.01831e+06 88158.2 787282 51007.1 490382 
234 1 31.0946 31.3375 6.87417 0.191871 505934 44198.6 747898 -367038 -255146 423969 
233 1 29.3087 29.6523 6.81963 0.140316 -9110.92 -964239 -415216 -583042 70655.7 364506 
176 1 31.7631 30.6668 4.3356 5.9741 342893 595653 661753 -232784 235768 -44006.2 
175 1 33.6334 28.8515 4.37789 0.507712 -7905.86 389647 348094 313734 262083 170517 
238 1 33.6125 30.7796 6.23997 5.67466 307534 379733 806733 -540045 16105.5 129665 
2904 1 35.3455 30.768 4.40231 0.339579 -654144 -65659.6 301664 41459.5 -315297 -175091 
241 1 22.6743 32.8444 7.12466 15.3029 562548 1.20483e+06 1.12094e+06 -236562 68826.2 -392040 
179 1 24.337 33.1339 5.11275 0.763538 -451101 -376274 536639 -447125 713193 -38387.7 
180 1 22.4207 34.8409 5.2688 18.9428 616543 1.15062e+06 971019 -172699 226619 -354503 
242 1 24.3825 34.6117 7.23436 0.551939 -629084 -353172 -14343 124995 -123779 -73252.9 
245 1 26.2429 33.0295 7.15036 4.64349 -379389 -454169 -636782 222798 845408 -302305 
183 1 27.6561 32.8791 5.16042 2.76406 -956450 -817848 40667.7 140480 495992 -245961 
184 1 26.0645 34.7971 5.21618 0.365225 -608948 -607158 90378 -82870 58453.2 -192754 
246 1 27.9092 34.7558 6.88877 6.62409 -690521 -750211 -612078 -434432 289841 -33247.1 
188 1 29.371 34.6087 4.95774 5.79773 -692147 -173798 -138362 432181 277830 -435360 
187 1 31.1951 33.0798 5.06651 3.92489 85924.6 421396 925851 546350 -94199.1 323720 
249 1 30.3717 33.8757 7.40951 6.9013 1.15985e+06 1.217e+06 1.3375e+06 -268168 397200 -103786 
250 1 32.2085 35.7276 7.47349 6.57524 436381 350428 831958 -123966 293404 -198902 
191 1 33.5332 32.5378 4.36538 5.76055 -233842 -570650 504240 -159164 -25349.4 -139183 
2991 1 35.2637 32.582 6.21172 5.64684 282901 164251 778712 -364534 -111998 -65665.3 
2922 1 35.282 34.2397 4.30006 5.47008 -487330 -571008 185434 -229931 -68990.1 -251471 
192 1 33.08 34.8169 5.20256 4.35002 -313593 -19480 516739 307702 90899.3 71501.4 
253 1 32.9143 33.1434 6.99567 0.558085 573836 122964 -23643 -254349 144065 432696 
254 1 34.6861 34.9349 7.07015 1.10919 376753 413920 184367 65084.4 -524647 -158012 
195 1 23.7019 22.9669 8.61181 20.4866 -222174 -72350.9 -352111 -377503 370475 -51152.4 
257 1 23.1571 23.7692 10.7138 29.6357 199781 471444 525772 -413593 246016 -215778 
199 1 25.9834 21.9968 8.14861 16.0727 1.18439e+06 417881 1.02909e+06 77012.2 -56060.3 -253387 
262 1 27.3783 24.3777 10.6655 0.575253 194358 -420092 -25633.2 361765 36413.9 -232629 
261 1 25.443 22.5847 10.4975 19.1767 1.0741e+06 650547 429821 1931.78 258798 -62226.6 
200 1 25.6282 24.3876 8.66715 0.624966 -316283 -362534 -107520 -275172 -330422 -36807.9 
265 1 27.9403 22.0979 9.99252 12.194 1.09441e+06 -209347 862877 -254523 240175 149084 
204 1 27.9809 23.6911 8.09996 6.48302 248040 140867 762258 105751 -89996.4 232905 
203 1 29.6443 21.845 8.04762 17.8198 998957 356266 1.1494e+06 44435 118311 195714 
266 1 29.8374 23.689 9.93847 5.42719 67159.4 -575063 427847 -197911 -256587 47266.8 
269 1 31.426 21.7639 9.87898 16.5376 1.0015e+06 519484 1.06991e+06 144012 -8039.79 117987 
208 1 31.5586 23.4967 7.98318 0.301637 241612 -617857 263889 64684.8 -202526 68913.9 
3009 1 35.115 21.7107 9.86882 18.2611 235773 226005 790493 49660.9 605726 51522.8 
207 1 33.2679 21.6717 8.01759 17.4995 1.31259e+06 656377 1.35499e+06 218357 -295449 -203147 
2940 1 35.0703 23.6549 8.02114 0.780067 -120728 -142882 284470 440055 149269 48088.8 
270 1 33.4151 23.4455 9.85426 0.650417 585118 -378922 16193 289518 266113 559849 
271 1 33.2394 21.9031 11.6674 14.1239 1.08686e+06 174056 741024 82652.8 349406 488779 
196 1 23.2793 25.5198 8.91524 8.05179 468586 1.0716e+06 952068 -131225 375854 66678 
273 1 23.344 26.8714 11.1767 14.9706 383762 1.31672e+06 1.50737e+06 117083 -36496.5 -217357 
212 1 23.3938 28.5793 9.18561 8.46929 816581 1.56571e+06 1.32889e+06 192730 262946 -263853 
258 1 25.0406 25.1226 11 4.80179 -967891 100171 1.12484e+06 -400681 156266 -201884 
274 1 25.2126 28.4907 11.2341 0.282149 -323450 -345243 393129 88575.6 341763 -49391.6 
211 1 25.2968 26.9254 9.15751 4.95289 -728956 -30910.1 201603 -184369 -185273 -102073 
215 1 27.5991 26.1338 8.83212 0.768587 -309811 383277 193846 208784 154399 -139174 
277 1 26.9033 26.789 11.0728 4.93806 -162648 -457908 10039.5 253800 111220 -227808 
216 1 27.0126 28.6461 9.2836 4.9072 -854541 -153700 386684 -80511.4 -178711 -67510.6 
278 1 28.6815 28.5627 11.1336 5.02106 -246244 547226 461674 -233400 -74179.1 -226914 
285 1 31.7087 25.3536 9.89227 5.71028 -530713 27667.2 276506 -352517 299687 193227 
219 1 29.8599 25.3431 8.07408 6.17807 -80990.7 351316 212793 -13782 -75021.9 359137 
220 1 29.2992 27.9671 8.74953 0.285362 -1.00851e+06 404061 184488 -222825 109418 -83065.4 
281 1 29.3529 25.9916 10.6375 0.545338 -236773 119176 544859 -336975 -441674 -173345 
282 1 31.0629 27.7387 10.5456 0.178546 -249572 113120 188655 -203278 -118447 -261842 
224 1 31.6102 27.2258 8.17229 6.04103 -385244 21706.2 -211192 247789 -209804 94218 
223 1 33.2811 25.3489 8.055 0.649931 -337572 -271921 -603410 216582 10270.7 324386 
3027 1 35.2312 25.2777 9.92675 0.221667 184407 -346247 131792 120325 22857.6 -225085 
2958 1 35.2126 27.092 8.12125 0.150714 -138995 -65694.1 -184318 -121189 -218322 172437 
286 1 33.4575 27.0728 9.96112 6.10467 -294502 -71257.6 84147.2 -84578.1 -33851.6 -175774 
228 1 22.7921 31.1021 9.01155 13.0157 298170 844876 516608 -322961 289850 48654.5 
289 1 23.3113 30.182 11.2782 10.5344 761950 1.25493e+06 1.07643e+06 152599 -21660.3 508239 
290 1 25.0738 32.09 11.4758 5.42558 213808 405667 903724 67566.9 -603756 -145834 
227 1 25.274 30.3843 9.53238 6.39449 211481 287449 368876 45810.1 -418662 220113 
232 1 26.9661 32.1834 9.40844 5.72607 -106688 -53135.6 556677 91932.5 -356271 -64995.5 
293 1 26.9304 30.3083 11.3252 0.363256 -63006.9 85680.4 54638.2 42085.1 -323467 -197636 
231 1 28.7037 30.4742 9.19499 4.75477 43856.1 -11476.1 578755 147219 -272312 94205.1 
294 1 28.74 32.1401 11.2378 0.217573 391354 559684 546324 -297495 143352 -153852 
235 1 31.0785 29.6451 8.72475 0.188659 -152309 -100442 -217145 -292347 71862.1 28907.1 
236 1 30.5626 32.1653 9.38539 5.92535 27338 262225 635688 -250615 8444.44 -90681 
297 1 30.5 30.1916 11.0263 5.62392 181855 306844 302032 -250766 243885 -14447.5 
298 1 32.3158 31.9976 11.1802 6.00959 290893 918191 -148862 -17248.9 386204 -23308.1 
3045 1 35.3723 28.8301 10.015 5.70789 236655 632777 96725.7 369945 179938 -15855.8 
239 1 33.4977 28.9391 8.1503 6.07237 268925 408089 483580 -63738.1 -76770.1 -99474.1 
240 1 32.8762 31.4182 8.78504 0.239192 24076.8 -37790 285757 14103.9 44266.4 138514 
302 1 34.7105 31.2809 10.6315 0.260172 806864 901544 660763 -136281 52972.5 136602 
301 1 32.8858 29.5333 10.5493 0.11922 334867 508552 632083 -125989 17664.1 -26466.4 
2976 1 35.2569 30.7302 8.13487 6.2415 547081 394723 960500 -13315.7 -98094.7 -226913 
305 1 22.792 32.722 10.8621 13.4899 -99958.6 568631 992455 -186958 75547.6 104941 
243 1 24.5609 32.8154 9.01118 5.75097 -844138 -590003 197092 -460769 382009 20038.4 
244 1 22.71 34.4768 9.16055 16.1666 96634.2 1.1551e+06 675918 106937 -67419.7 152533 
306 1 24.4818 34.5396 10.8694 6.01767 -777894 -212520 -22450.5 -136546 -165815 84253.9 
248 1 26.165 34.6161 8.92537 5.93252 -533154 -1.19609e+06 -546579 -353934 -189354 -483699 
309 1 26.848 33.8555 11.3188 5.72826 447977 145909 759158 -57138.9 -188798 -10649.2 
310 1 28.6668 35.6324 11.2945 6.12337 -51364.7 -15473.9 895510 78829.4 8726.34 -130237 
247 1 28.7218 33.9877 9.29547 5.41414 261594 418550 941897 -300008 115178 30844.2 
252 1 30.4507 35.7443 9.26407 6.115 22387.6 101626 327367 -689111 -99120.7 15258.2 
313 1 30.4418 33.9291 11.1743 0.581454 284595 -255123 292652 -189915 -7018.6 -661017 
251 1 32.3878 33.8465 9.28523 5.73056 866437 166107 406532 -389912 130822 -506736 
314 1 32.3449 35.5977 11.0767 0.759761 -19427.2 -345323 237898 232030 434929 314650 
318 1 36.028 35.5761 11.2242 5.28686 -413996 36935.7 453677 -305345 255657 -255465 
317 1 34.2283 33.8658 11.1743 5.50584 497855 704421 317407 -28698.4 4396.88 -199425 
255 1 34.8478 33.0542 8.88533 1.15878 45156.8 -389888 307191 -217371 -34134.9 -9282.84 
256 1 34.167 35.6395 9.37014 4.87847 -147069 207617 -226485 -172002 495582 106839 
321 1 23.5893 23.2292 14.8945 32.0166 944769 806998 1.0143e+06 34300.9 373096 -42073.9 
259 1 24.8891 23.2488 12.8521 12.6344 700102 646428 1.19093e+06 332670 639514 -37865.1 
325 1 26.8013 23.269 14.8979 9.29251 721003 -350599 1.05974e+06 -132102 2343.08 -22890.8 
263 1 27.2533 22.4593 12.4331 18.1802 1.07167e+06 351218 1.12198e+06 -248159 152046 13375.1 
326 1 28.7029 24.7165 14.8306 6.27032 -350279 -782139 98878.8 -767293 207027 -18739.4 
264 1 26.8915 24.9303 12.9761 5.4239 -455694 -105051 -59546 354490 489905 -224578 
322 1 25.2116 25.0896 14.9134 0.544898 -830192 -423024 311036 80091.7 -4694.43 304306 
267 1 29.7939 21.7009 11.7441 16.5449 1.20534e+06 702746 1.14861e+06 -383121 202207 36999.9 
272 1 31.4358 23.5721 11.8089 6.26827 -152333 -1.0192e+06 114320 309440 -87205.3 -99525.3 
330 1 31.1378 24.1178 14.2423 0.572581 -192790 -1.54947e+06 -433426 -34215 207025 254505 
268 1 29.1122 24.1402 12.4464 0.537045 -1.01947e+06 -187411 -245841 34870.6 283480 310679 
329 1 29.1973 22.4434 14.1784 16.9552 948651 -476032 1.03096e+06 8083.64 -112047 311266 
333 1 31.6236 21.8702 13.5809 13.8263 767992 -544882 543063 46196.6 256671 100852 
3012 1 35.1789 23.5493 11.848 0.322719 -672848 -302609 401040 -335485 55909.4 -128820 
3081 1 35.1663 21.5581 13.6962 17.2997 1.16765e+06 682339 1.45181e+06 -343484 205223 -90682.9 
334 1 33.503 23.5762 13.7389 5.49411 -203360 -608265 77363.8 -433913 383371 292190 
3084 1 35.2428 23.4959 15.5722 5.57725 -375200 -151225 83330.2 -162540 429315 152642 
335 1 33.3745 21.757 15.4085 14.4677 883188 150557 607405 -155493 235911 193888 
260 1 23.3712 25.1291 13.1832 18.9666 238143 841067 1.87892e+06 -30919.9 -155269 -50275.9 
337 1 23.4069 26.7856 15.1703 16.2272 49956.3 600602 1.02043e+06 -244036 -181722 222437 
276 1 23.5065 28.4973 13.0872 15.3521 -271923 704474 723499 -277348 38007.9 2503.22 
338 1 25.1898 28.4018 15.0493 0.327843 -845254 -293166 531086 479156 -27997.8 258629 
275 1 25.228 26.726 13.0917 0.240584 -178279 -299632 335762 207446 -148016 456709 
280 1 27.0617 28.4905 13.1333 0.326048 127066 -314313 312726 405398 -27901.3 247647 
341 1 27.019 26.7466 14.9248 0.307804 -375364 -152027 -281026 -306540 27964.1 215144 
279 1 28.6801 26.5985 13.11 5.99637 -614129 -63007.1 398498 72624.6 405810 -258822 
342 1 28.8996 28.3934 14.9447 0.51866 -23404.6 -162196 -412611 -48116.6 -193291 -174517 
283 1 30.9483 25.8379 12.5056 0.652919 -285649 -336838 246835 128929 -235682 -17777.1 
284 1 30.4922 28.424 13.012 6.00162 -121244 738537 707961 -3899.6 82109.6 -103017 
345 1 30.4236 26.45 14.9378 5.52332 -238859 -204564 177452 163203 153193 -2438.76 
346 1 32.2097 28.4039 14.8582 5.46614 624880 434000 666333 71039.6 -40772.5 26295 
3099 1 35.1881 25.2916 13.7498 5.87743 -288276 -596867 140141 -137320 149170 -39764.3 
3030 1 35.1626 26.9747 11.8059 5.91627 17919.4 273696 649430 -239203 -37501.9 -20969.7 
287 1 33.3705 25.2174 11.7998 6.14649 48118 191486 714545 88895.4 -263537 174832 
349 1 32.8124 25.9263 14.3461 0.187898 -78774.8 502.539 458909 -65572.2 82894.9 -9411.02 
288 1 32.8019 27.6449 12.3755 0.354263 32274.9 485525 752314 -59262.3 96489.7 -135806 
350 1 34.7016 27.7188 14.369 0.282058 761798 -69674.1 250910 -42601.7 -88720 301251 
292 1 23.2351 31.8081 13.5109 10.8205 826331 1.96477e+06 1.94095e+06 -44322.1 -277400 201907 
353 1 23.5189 30.0608 15.2564 14.5732 -99254.8 -170059 464533 413110 -79085 407915 
291 1 25.2534 30.1195 13.1736 0.592973 -402647 -212886 153123 -307151 42116 -204288 
354 1 25.2266 31.8575 15.0018 0.872825 -445729 263072 530888 -76939.2 91996.3 -50905.7 
296 1 27.0005 32.0611 13.1071 0.256972 -27834.7 154013 -91812.5 -216107 -141862 -156895 
357 1 27.0329 30.2544 14.9807 0.226554 149561 194882 500751 169265 -377846 -173400 
295 1 28.8533 30.3078 13.0879 0.293345 336607 246017 538816 105343 -222164 -202074 
358 1 28.8012 32.0277 14.9429 0.227447 100367 -132540 692311 288353 -9653.08 70387.7 
361 1 30.5886 30.3479 14.9182 0.876568 -670922 -335312 -211322 -119686 212220 -68653 
300 1 30.7555 32.0082 13.0177 1.06204 -263310 -139817 -31303.8 -36756.9 383384 19330.4 
299 1 32.2814 30.1503 13.0343 5.64194 -598337 -340223 610593 419089 445916 70522.3 