ITEM: TIMESTEP
18800000
ITEM: NUMBER OF ATOMS
5780
ITEM: BOX BOUNDS pp pp pp
3.8305929121739317e+00 6.8469407087841574e+01
3.8305929121739317e+00 6.8469407087841574e+01
-6.6863167017717942e+00 7.8986316701787331e+01
ITEM: ATOMS id type x y z c_csym c_2[1] c_2[2] c_2[3] c_2[4] c_2[5] c_2[6] 
68 1 21.6894 24.0406 -3.62073 21.1726 72328.2 -434392 791047 127046 121243 87925.8 
65 1 21.7514 22.3222 -5.46772 38.1563 451596 -138157 184376 141361 375329 810986 
66 1 23.5697 24.0117 -5.25338 5.75992 -510565 -313427 -658583 -165613 158594 -236731 
69 1 25.1862 22.0876 -4.95106 17.6409 876200 417677 873088 -94674.2 -311345 -268858 
67 1 23.3049 22.2092 -3.35044 27.0747 600319 164223 1.15485e+06 125170 265316 22532 
73 1 27.6262 22.6539 -4.7345 9.99804 412858 86104 553240 87731.2 324453 207442 
70 1 25.9235 24.4476 -4.55523 5.22977 -1.00117e+06 -526001 -227094 -509660 -100665 -86458.3 
12 1 27.5519 24.3874 -6.52821 5.84192 304890 -495979 182151 -297807 201596 367830 
74 1 29.3919 24.4762 -4.66 0.438865 282772 -320465 229970 -413940 118447 137546 
77 1 30.9643 22.4847 -4.58868 17.0932 991697 559353 951096 23036.5 76147.8 -10322.5 
11 1 29.281 22.5563 -6.53079 10.1436 186909 131582 458838 9261.26 522218 426725 
16 1 31.079 24.3156 -6.52654 0.248327 -117503 205082 128211 -234629 269167 86658.6 
15 1 32.7072 22.4405 -6.40942 17.1448 1.02795e+06 565614 1.00977e+06 216136 3169.85 101084 
78 1 32.6514 24.3979 -4.60994 0.594969 -29223.3 61040.9 -105389 310275 209223 -48298.5 
2793 1 34.413 22.5504 -4.61334 15.4023 758372 309712 569553 40666.3 200235 37981.9 
2724 1 34.5112 24.3384 -6.39672 0.318184 774318 124774 533956 -75.4481 183198 -29057.5 
81 1 21.6076 25.7123 -5.39773 12.947 -124049 -122640 -245752 -14907.8 214955 70192.9 
82 1 22.06 28.0392 -4.63109 9.57708 72266.2 -261155 433246 63297.3 253356 109368 
85 1 23.8842 26.3402 -4.59818 5.14375 -152074 -521675 -199988 -101688 213649 -32707.7 
24 1 23.7712 27.9922 -6.54246 5.48449 -489556 -768487 129239 -14904.4 -260904 -493880 
86 1 25.7206 28.1187 -4.82945 0.521729 -213103 -765731 -189956 -35078.6 229495 -218527 
89 1 27.4857 26.2629 -4.73538 0.19236 -543261 -475556 -66653.7 -723854 631524 64926.2 
28 1 27.4788 28.0062 -6.61322 0.23768 -123729 -95788 -54870.3 31874.4 197072 277791 
23 1 25.6081 26.2822 -6.51041 5.51881 -258975 -126902 144086 -191507 -65820.6 -490562 
90 1 29.1187 28.0737 -4.63836 0.801278 319221 265560 254596 -404100 392824 -112530 
93 1 31.0408 26.2506 -4.64728 0.267183 -73902.1 -233966 785041 -520439 25805.2 -78219.5 
27 1 29.2096 26.198 -6.50442 0.222052 120921 353073 568254 -225048 67683.9 340089 
32 1 30.9947 28.0265 -6.62271 0.211806 -114451 -356604 513900 -9403.33 -402257 366009 
31 1 32.7619 26.1465 -6.65372 0.336915 -301041 -112467 170457 -344416 68693.2 93198.4 
94 1 32.7774 27.9738 -4.74608 0.138481 -379199 342723 142902 -109064 344786 230153 
2811 1 34.5659 26.169 -4.70212 0.190569 288606 276387 218351 -91946.4 71010.5 -260884 
2742 1 34.5103 27.8711 -6.59612 0.186864 -142695 -138494 171877 -241489 271505 316886 
97 1 21.5558 30.4426 -4.17722 28.9929 14205.1 464969 791917 -112380 -6799.78 -197775 
36 1 21.4652 32.2103 -5.93285 30.1344 372364 818053 893697 -21510.3 238581 -28203.6 
101 1 23.8711 29.7529 -4.79688 5.49407 -381741 -186920 78743.4 253148 -48119.9 -384606 
98 1 23.3451 32.1198 -4.10807 5.56704 -795493 -195573 -171680 -124872 131079 88779.3 
35 1 22.0521 29.7883 -6.58898 8.95469 -217669 -331865 -44925.4 -206100 51780.7 481809 
102 1 25.6511 31.6622 -4.74392 5.71005 -491641 -578105 755353 461053 385535 232.413 
105 1 27.3377 29.9189 -4.78058 0.692832 123399 -225324 500525 93966.5 178271 231383 
44 1 27.4685 31.5962 -6.58248 0.0882112 618478 274880 -55567.2 227430 576.696 233766 
106 1 29.3702 31.6833 -4.83206 0.568459 96859.9 3179.78 339726 17808.6 56719.7 345867 
109 1 31.0362 29.8281 -4.73245 0.169136 -190677 -48899.3 122013 92316.9 271988 115062 
43 1 29.3098 29.7516 -6.57242 0.2774 -223463 -83429.1 214045 237107 -230942 -85753.4 
48 1 31.1166 31.5715 -6.60241 0.106177 -771912 -265619 -217340 -102757 370672 93718.1 
2760 1 34.6431 31.4324 -6.60252 0.107321 -44008.5 -980018 -714231 28290.6 238227 -676738 
110 1 32.8437 31.515 -4.70112 0.15945 -958084 -814051 -166849 -312498 102609 310418 
2829 1 34.6196 29.7493 -4.74065 0.154561 120852 276793 43753.3 143961 476455 -97160.4 
47 1 32.786 29.6862 -6.61295 0.11391 -503977 -171117 -14901.2 -77971.6 382444 381148 
56 1 25.1035 35.7663 -6.01984 0.449944 -114839 85795.8 680953 171784 217112 149229 
1281 1 22.7247 34.5724 -3.74179 20.937 421413 990437 732319 130972 321012 -182556 
51 1 23.1849 34.0189 -6.08672 5.38083 -64424.1 547634 -127804 21433.1 -225465 -176791 
117 1 25.0787 34.0056 -4.31627 0.459933 45805 -253712 139718 390552 299090 334561 
60 1 27.4525 35.1756 -6.61341 5.8393 323181 188834 337494 -144639 -47194.2 40516.7 
121 1 27.439 33.3918 -4.73984 5.68643 204263 677009 814035 -127835 -116189 -46462.9 
118 1 26.9245 35.9809 -4.20066 0.53266 891772 834167 394671 35983.5 -1980.32 27627.3 
64 1 31.1214 35.1422 -6.62629 0.124942 -355799 -211352 446692 -162351 112791 -201854 
59 1 29.4204 33.4006 -6.61652 0.326983 291825 -96942.5 26411.9 -164937 -30054.6 294522 
122 1 29.3583 35.1783 -4.7016 5.50462 610165 445291 94863.3 111581 -50069.1 239932 
125 1 31.1592 33.327 -4.68236 0.260132 -290816 -948312 -306498 -279751 8658.69 -397247 
126 1 32.8903 35.1253 -4.70162 0.270726 -140758 341832 128296 -264579 419168 -348496 
2847 1 34.614 33.1136 -4.87304 1.08447 -449227 -347261 -282692 -386280 -168218 -54371.7 
2778 1 34.7087 35.0672 -6.50884 0.314641 86014.3 576326 127488 -94719.2 -224077 22611.4 
63 1 32.8387 33.2582 -6.57623 0.143077 -466434 -144962 -233731 -276630 -230039 261677 
130 1 22.2317 24.5498 -1.03506 12.6602 556103 175454 842208 -128340 8873.79 682829 
133 1 24.1176 22.8421 -1.02759 12.9295 -3228.02 32667.2 423347 -503679 477406 -34890.7 
72 1 24.0693 24.5038 -2.95289 5.44415 -192401 -534988 -889326 -272508 -36752.4 118117 
71 1 25.8767 22.7229 -2.73447 10.8491 353627 -328069 -580854 -181758 -93507.1 -117195 
134 1 25.8108 24.5205 -0.974985 0.221109 -690136 -886334 231304 -246833 223229 -194100 
137 1 27.4324 22.5385 -0.8497 17.6268 910249 837263 330725 241222 193772 -136187 
76 1 27.5638 24.4988 -2.81501 0.158578 -1.07455e+06 -449780 138985 -275597 -570235 -46490.1 
75 1 29.2807 22.7626 -2.72575 15.734 327308 -103150 468517 94876.4 -416094 -109379 
138 1 29.2636 24.5157 -0.929839 0.158187 90665.9 -223473 -399164 404374 90075 -141662 
141 1 30.9242 22.6363 -0.975377 16.0009 726206 266118 790318 20432.7 -332504 251107 
80 1 31.1068 24.4009 -2.745 0.291807 -591203 -646796 -153306 -363316 392818 99327.3 
79 1 32.7766 22.55 -2.84889 16.841 630093 297794 786927 53941.4 252682 129430 
142 1 32.823 24.2846 -0.835019 0.659933 454818 103665 567302 -95720.5 30105.2 136692 
2865 1 34.5602 22.4747 -0.968802 10.9621 1.4015e+06 699698 1.66602e+06 161535 184263 63718.7 
2796 1 34.5387 24.359 -2.78167 0.208325 325489 242078 757587 333076 194117 -5892.96 
84 1 21.7044 28.5893 -2.23837 25.549 -330665 -66177.9 75871.8 -55536.7 97754.8 -24908.1 
145 1 21.825 27.0237 -0.422407 23.3724 -61893 196266 -82586.4 -129679 -234642 454938 
83 1 22.1815 26.263 -2.84065 9.75062 34938.5 -840535 15661.7 -56614.1 332869 132650 
149 1 24.0971 26.222 -1.06372 6.06451 -267573 -40583.7 648130 30495.1 195282 193711 
88 1 24.0083 28.0927 -2.82464 5.94638 -683952 -683959 252041 -296144 216162 -219974 
146 1 23.4324 28.8686 -0.440757 4.7966 -1.031e+06 -177836 13543.6 -148873 -274383 305998 
87 1 25.8559 26.3707 -2.87944 0.550242 -430992 -111227 161850 -269077 364978 -117410 
150 1 25.705 28.1048 -0.867392 5.04034 -226657 53114 565523 35657.4 23202.5 142986 
153 1 27.5262 26.3248 -0.898993 0.320088 -501224 129196 -301665 40118.8 263395 142176 
92 1 27.5089 28.0836 -2.85702 0.262776 -258119 60439.4 11341.6 -533564 473563 -213567 
91 1 29.2913 26.191 -2.77705 0.394114 121747 35938 93998.7 -225804 6580.81 -4108.04 
154 1 29.3507 28.1074 -1.07139 0.235182 40862.6 -3778.28 424256 -208593 -11850.9 5224.02 
157 1 31.1157 26.281 -1.04647 0.401759 -156758 233571 -346002 -51167.7 56659.3 -194203 
96 1 31.1865 28.0717 -2.87801 0.547135 639123 254801 -227103 26593.8 399057 -180142 
95 1 32.8577 26.1392 -2.75741 0.382919 -753659 -356564 427007 -374023 307860 -148693 
158 1 32.8045 28.1802 -0.894859 0.932517 -759145 -583520 -552204 -169533 250065 -266682 
2883 1 34.5326 26.2166 -0.821251 0.454131 759570 847952 945223 -68876 101110 4153.84 
2814 1 34.4825 27.9022 -2.83091 0.7535 340868 -236150 523003 -199349 13575.1 -358338 
99 1 23.2742 30.4877 -2.33969 5.29321 -399277 -476004 -326549 -34588.6 -8637.09 658472 
165 1 25.1011 30.6996 -0.57496 0.881915 152497 -72842.5 366978 -185683 82015.3 -33567.3 
113 1 22.6708 31.1824 0.0191631 22.7796 685368 702429 1.20611e+06 248252 309293 -58082.7 
104 1 25.0383 32.4257 -2.3582 0.543854 -284894 -601131 -304756 255659 -27933.3 47613.2 
108 1 27.4367 31.6328 -2.84209 5.33826 455320 473571 451992 43823.3 -257847 19892.6 
103 1 25.6132 29.8098 -2.94554 5.5743 -382161 100269 305452 -647602 211889 -162909 
169 1 27.4834 29.8398 -1.04097 5.53026 463783 269013 596614 -166237 82210.4 84634 
166 1 26.9685 32.3994 -0.477552 0.37919 -318671 -253134 -612622 -322828 101273 -338649 
170 1 29.2936 31.6384 -1.08902 5.74619 -103033 -63776.8 130248 -5141.42 145156 -47514.9 
107 1 29.303 29.9498 -2.95774 0.409081 133689 49283.3 88229.5 -185284 195655 -255774 
173 1 31.0775 29.8687 -1.13096 0.473362 -821115 -597960 113633 2538.5 32686 178556 
112 1 31.1346 31.6366 -2.87019 0.10929 -490145 -360961 -379925 -499309 243879 441110 
111 1 32.9627 29.8983 -2.79951 0.824491 -939544 -639780 -306502 -237562 190400 265043 
174 1 32.8526 31.5689 -0.962929 0.20196 104427 -367413 -178751 -400705 -65838.6 160191 
2901 1 34.6827 29.7009 -1.03496 0.473558 -864820 -371801 65870 -432153 -217879 83595.4 
2832 1 34.721 31.4786 -2.92 0.282978 -969276 -1.23591e+06 196287 -687250 -86524.6 -29991.6 
52 1 22.6911 32.9238 -1.86248 23.1825 31617.7 699242 643345 159112 445407 -41289.7 
1283 1 24.4844 34.6779 -1.82906 5.76884 -114009 -466398 290557 341861 93000.3 97849.8 
114 1 24.4571 33.0125 0.0691448 5.64181 -40500.6 -524634 -155119 33949.6 164605 31227.6 
124 1 28.7666 35.9091 -2.35448 0.199039 242352 -53239 547038 -246679 14586.4 -212321 
1357 1 26.2158 34.7347 0.0220737 0.176009 -284922 -308775 -174400 -193517 53402.5 61568.2 
119 1 26.8821 34.197 -2.31393 0.33004 -8970.1 150748 462274 110632 437253 -84284.1 
185 1 28.7018 34.089 -0.37394 0.471051 -37915.9 -5007.02 -34066 -199036 29672.4 13755.5 
128 1 31.1702 35.0316 -3.00614 6.24201 -456749 342657 -316644 -195687 63239.2 -493132 
186 1 30.6249 35.9004 -0.555689 0.724004 -50583.1 104239 643658 -125890 38758.4 96451.4 
123 1 29.2137 33.4509 -2.86402 5.61524 304619 226093 675828 -190766 45049.4 287618 
189 1 31.0829 33.3854 -0.954441 5.80857 423035 67114.1 635645 -83384.9 207856 150891 
127 1 32.9697 33.237 -2.80284 0.517468 -404606 -311099 116913 -221030 -315164 40333.7 
190 1 32.8802 35.1619 -1.08 6.20163 -140461 99029.2 474428 -146595 231167 -53270.7 
2919 1 34.6906 33.2463 -1.00568 0.0642977 -513037 -76224.2 -108594 -397639 -233491 -122920 
2850 1 34.7462 34.9935 -2.93813 0.228928 -584599 -199476 131696 138068 -57443.6 144768 
129 1 21.8953 25.2994 1.3798 24.196 -612368 -343333 561569 -295123 96779.9 -83727 
193 1 21.8064 23.4714 3.07042 51.4292 153609 222316 576921 266913 103424 -91408.6 
131 1 22.4211 22.9478 0.78874 31.9033 108016 -367754 137001 -134488 302565 128868 
197 1 24.127 22.9217 2.76629 14.2362 -30390.9 -256215 830619 -280286 211152 43693.5 
136 1 24.1366 24.6092 0.863699 5.63425 -591247 -340349 392623 -245641 401690 134195 
194 1 23.4914 25.2467 3.37153 5.78246 -99234.5 -497214 163435 -267620 28699.2 624438 
135 1 25.8456 22.7027 0.89652 17.432 640698 355637 618144 -154688 627851 7823.12 
198 1 25.899 24.552 2.79862 5.68541 -243421 -883138 362414 -251514 17515.6 181885 
201 1 27.5459 22.7384 2.8673 16.7597 872434 444284 1.27801e+06 164442 194244 55857.5 
140 1 27.5633 24.4884 0.866095 0.264119 26152.3 -177165 373924 96266.5 367870 170913 
139 1 29.2805 22.6641 0.963872 17.5512 901646 381782 960845 25192.2 -148147 -34587.3 
202 1 29.3635 24.496 2.8329 0.201883 146858 -307674 842404 -161068 100739 12137.8 
205 1 31.0167 22.5882 2.70277 17.1347 1.02442e+06 759940 1.28324e+06 78975.9 8617.5 164612 
144 1 30.9972 24.5173 0.91145 0.290175 -213793 -54128.9 195747 -342904 6219.43 -144844 
206 1 32.7824 24.4384 2.71366 0.281777 311971 192209 287869 105757 -174486 12135.8 
143 1 32.7667 22.5386 0.93576 17.6262 1.20633e+06 512887 667259 -110684 -58911.2 230621 
2937 1 34.4155 22.4339 2.7353 17.5644 1.00074e+06 615183 900200 -35641.2 167927 221732 
2868 1 34.6376 24.3184 1.00251 0.512041 416285 465288 237967 299831 -146524 108148 
147 1 23.4453 27.0754 1.41311 5.71827 -258238 60958 908021 -956360 -263125 103383 
213 1 25.3072 26.9424 3.3424 0.545688 -191392 -268750 339806 -591750 184853 -85807.6 
152 1 25.0436 28.9102 1.44642 0.779278 118756 -608739 -152703 -332826 -27997.2 -675475 
161 1 22.86 27.6848 3.84943 18.3733 361044 799098 1.25352e+06 -271456 29909.7 142618 
151 1 25.9646 26.4042 0.924626 5.23499 268123 374551 19463.7 -49423.5 522138 326254 
217 1 27.6981 26.3027 2.84996 5.19359 -77285.9 106767 732758 24113 -66093.3 222500 
156 1 27.6892 28.2104 0.95162 4.8758 164387 -470436 544258 -295714 -34265.3 -4627.76 
214 1 26.8676 28.7449 3.31816 0.344147 -434937 -344581 -118414 -362672 411835 -150573 
155 1 29.3305 26.3737 0.812756 0.453974 -528923 -214473 446294 -91617.3 -230926 -63985.3 
218 1 29.3094 28.2052 2.87394 5.3946 -426584 -662121 494487 -494747 -215907 -127964 
221 1 31.0425 26.2516 2.75678 0.206269 -210033 -223617 90417 -547065 208154 74506.8 
160 1 31.0801 28.0135 0.861105 0.297143 -789608 -490333 194646 -327360 -42005.3 -50487.1 
159 1 32.7246 26.2391 0.888529 0.393672 -484893 -361134 -153908 -144975 289198 -205439 
222 1 32.8028 27.9668 2.68276 0.438396 -357059 -100132 -281130 -130460 293677 211779 
2955 1 34.6196 26.2241 2.74901 0.387617 -129762 -163064 196897 210187 370090 -94278.3 
2886 1 34.5565 28.0671 0.979946 0.383115 -114439 102608 74701.7 -182101 194814 61004.8 
115 1 24.5897 31.1902 1.87144 5.51144 -753152 -1.01842e+06 -453078 379551 247111 -139793 
100 1 22.6191 29.523 1.94722 24.9869 765429 1.56468e+06 1.54348e+06 147718 197387 124932 
162 1 24.5002 29.4491 3.76919 5.37626 -864123 -391180 -883933 -40131.7 461432 -33900.3 
167 1 26.9224 30.5604 1.39545 0.151946 -622339 -573930 20810.6 -65967.8 396250 -362492 
233 1 28.6853 30.5069 3.25121 0.0784064 -310200 -714189 368453 252323 240477 -310831 
181 1 26.2766 31.2197 3.63929 0.323414 -104167 238418 -643202 -40095.9 6968.21 -130401 
172 1 28.6544 32.2806 1.33109 0.236742 -563475 -588528 -374493 -11961.5 70497.1 -4776.27 
171 1 29.3616 29.9305 0.815576 5.63557 99162.9 -227006 631366 -404509 159602 -33763.9 
237 1 31.0497 29.8208 2.79001 5.80194 -446323 -373845 467614 -414887 212467 -22234 
176 1 31.1158 31.753 0.90758 5.80812 146634 71957.5 420419 -103000 352470 184767 
234 1 30.5193 32.2202 3.2949 0.170889 -412893 -1057.8 131617 64769.9 527296 -287015 
175 1 32.7803 29.8142 0.833169 0.37942 200005 -667921 59197.8 -179951 135014 -338982 
238 1 32.8903 31.5632 2.84866 5.78648 -531976 -541558 389214 -48429.4 68683.2 185759 
2973 1 34.6424 29.78 2.88134 0.245445 -61369.4 -211306 95028.5 105069 343872 94359.7 
2904 1 34.6284 31.4707 0.955424 0.182813 -213315 202168 389898 170849 27869.9 145685 
1353 1 23.8504 35.3775 0.579093 14.5112 255172 714101 1.168e+06 58129.7 66632.2 122282 
116 1 23.6851 33.5128 2.356 15.0201 777289 966331 682598 141220 18974.2 354769 
1355 1 25.6093 35.2929 2.47587 5.52445 -144884 111344 -499308 11220.5 -70457 184549 
1359 1 27.9938 34.7092 1.90656 0.151486 -743420 -598057 -602322 -292967 106512 38783.9 
120 1 26.3012 32.9592 1.77206 0.41107 -435626 -1.42106e+06 -461227 -186199 72441.9 750.289 
182 1 28.1617 32.9319 3.64657 0.762052 -198439 -443588 -350992 -488694 138220 -124017 
192 1 32.4192 35.824 1.35039 0.523609 -27219.7 50118 40819.2 -229462 46873.6 -83581.8 
1433 1 29.7422 34.6866 3.71724 0.26988 -281261 -525619 -840563 -829384 361656 -314627 
187 1 30.4357 34.1277 1.42774 0.38526 498180 39141.5 168027 273272 53649.6 -437506 
253 1 32.3136 33.9714 3.30297 0.262633 -244688 -353845 277004 187538 371934 -368948 
191 1 33.0095 33.3481 0.974918 5.41574 -89650.4 -208057 370848 -501068 -26200.9 -113222 
2991 1 34.6015 33.2835 2.88845 5.66571 -711607 -483227 198781 100818 -366606 76485.1 
2922 1 34.7301 35.0355 0.825217 5.41769 -280221 160779 432943 -46935.7 243281 -262746 
254 1 34.1404 35.7113 3.19106 0.411674 -199014 -228352 252767 33904.3 146725 -297566 
195 1 23.327 23.7228 5.13969 19.8076 800746 -234059 805058 -187837 128463 797673 
261 1 25.1064 23.5762 7.10149 18.4317 361776 229937 705090 -165638 -282652 108313 
200 1 25.2636 25.3035 5.23759 0.233694 -966273 -487342 383448 74962.1 -59889.6 123010 
199 1 25.8093 22.8922 4.63945 14.031 938151 64765.8 725504 -432118 148440 261702 
204 1 27.527 24.6811 4.76502 6.4233 -281210 53227.4 459184 -122494 179827 -23202 
265 1 27.6071 22.6988 6.49997 16.0621 1.14133e+06 1.11102e+06 1.01027e+06 -278753 -134233 163845 
262 1 26.9478 25.2867 7.13114 0.203231 91776.6 700850 354800 -297720 -4394.92 193929 
203 1 29.3266 22.7787 4.71125 16.4852 1.32026e+06 728976 1.27344e+06 -173279 64823.1 250653 
266 1 29.3459 24.6451 6.70663 5.73169 572687 209108 255719 -60750.8 -44324.9 535563 
208 1 31.1024 24.5888 4.72481 0.248494 118969 218051 761790 209363 -377957 308843 
269 1 31.1161 22.6774 6.55777 16.5935 1.1051e+06 480759 1.2686e+06 -459158 133398 123273 
207 1 32.7909 22.706 4.69955 16.4444 225448 -249041 958654 -705393 94603 4564.62 
270 1 32.701 24.5292 6.60276 0.391509 192795 79805.1 665353 -418124 -106346 -272737 
3009 1 34.4496 22.7125 6.56231 15.7972 596041 38606.9 567157 -102213 -202722 280420 
2940 1 34.4006 24.3591 4.63948 0.645202 -684954 -710609 214675 -328452 86581.5 347792 
148 1 22.9411 26.1257 5.79311 14.5794 -340608 369342 927835 -578858 34309.6 333539 
163 1 24.6371 27.7043 5.65687 4.62931 -2.1171e+06 -1.58413e+06 70415.1 -927579 175653 -48550.7 
215 1 27.0002 27.1086 5.27027 0.359705 -908829 -1.30218e+06 524205 -290998 25353.3 -10686.8 
281 1 28.7208 27.0818 7.26536 0.415971 -461595 -104211 -289407 -295901 38733.4 -291703 
220 1 28.7028 28.742 5.26295 0.253286 -592355 -818813 705373 -377661 395825 -255394 
219 1 29.4284 26.3615 4.77395 4.85426 -395605 -226846 420164 50576 -349078 89505.4 
224 1 31.1225 28.138 4.67817 5.61709 -244244 -560396 401740 -429097 -260949 413280 
285 1 31.0627 26.5319 6.60129 5.42973 -259919 -18876.1 336557 -245967 -327260 88155.6 
282 1 30.4004 28.8458 7.29947 0.649677 194138 -606397 927132 -276180 -63610.6 44976.5 
223 1 32.9291 26.2882 4.53911 0.814231 -504143 -485804 162802 -338764 -166855 129899 
286 1 32.8796 28.1612 6.48425 5.64143 24231.6 -128042 491601 -232813 -120293 379840 
3027 1 34.458 26.2848 6.51367 0.419099 108332 219679 490033 209079 16070.6 228792 
2958 1 34.6134 27.9745 4.64619 0.252761 -311578 -717476 62577.2 -56129.1 364913 612986 
177 1 23.7231 31.7682 4.07434 12.5431 533528 290847 454576 247265 304368 48465 
164 1 23.7141 29.9654 5.99161 12.0888 20799.3 69252.7 -124904 79325.8 225662 229807 
179 1 25.5068 31.7209 5.97399 5.79387 -471456 110630 43711.9 -229505 -374763 -76156.8 
168 1 26.226 29.4017 5.56521 0.40342 -843234 -1.69399e+06 -98051.8 -444937 293753 -356089 
183 1 28.0329 31.0814 5.60209 0.355044 16040.8 -347313 -102580 48202.7 624522 -441114 
235 1 30.5189 30.4761 5.19622 0.244594 233690 -415126 918218 21323.8 202170 -193947 
301 1 32.2523 30.5762 7.18975 0.160103 125524 120847 770553 -226367 -37588.1 115846 
240 1 32.3381 32.2351 5.2971 0.347507 -108764 -263781 762469 -318976 56104.7 19425.4 
239 1 32.9192 29.839 4.6876 6.11221 -424394 -411790 76853.1 -243632 398860 596915 
2976 1 34.6822 31.6139 4.70176 5.93276 -356861 -637487 84393.4 27245.1 45965.2 392885 
3045 1 34.6257 29.9834 6.6104 5.9784 -242180 -337232 531304 -273607 629.06 276358 
302 1 34.044 32.331 7.2073 0.186743 -12463.8 -557962 484587 -265659 -219767 -105044 
1425 1 23.782 35.4622 4.19605 16.2378 -283324 287499 394672 -32885.1 -165926 288276 
180 1 23.6847 33.6466 5.7843 15.5477 553.705 1.07673e+06 770062 -203299 422161 458735 
1427 1 25.3417 35.5982 6.09059 1.46792 2055.05 80684.2 4280.78 -965.442 -534777 284187 
1429 1 27.2924 35.4243 4.23032 5.94772 -97224.3 -50227.4 -254764 -20299.1 -573710 105520 
178 1 25.4402 33.6423 4.17584 5.89628 -395608 12775.9 -143518 23921.2 193986 795562 
184 1 27.2846 33.5033 5.89818 5.607 345931 242052 -186173 -425684 -424676 187965 
1431 1 29.1524 35.2321 5.97328 5.98645 -505191 -392160 -1.45649e+06 -242231 35973.8 353022 
1435 1 31.6491 34.6752 5.63745 0.43028 -83310.8 -119038 55832.3 270013 953708 -470722 
188 1 29.8412 32.8377 5.58751 0.357914 371995 -224443 -185257 186135 578309 -394463 
255 1 34.012 34.0155 5.26622 0.335898 -292792 -126417 1.02134e+06 -163957 129620 -30340 
2994 1 35.8247 35.7994 5.27746 0.329954 235710 157937 919380 85134.1 202862 -172832 
3063 1 35.7571 34.115 7.28008 0.455134 -291402 -632141 400420 -84578.2 -57651.6 60874.2 
132 1 22.8618 24.3322 7.60007 60.4857 -10417.1 112586 1.0601e+06 -114942 -96659.4 -198702 
196 1 24.4548 24.2565 9.54993 14.6749 -20701.8 396868 1.01131e+06 -25769.2 -92745.6 248477 
263 1 26.7299 23.5257 8.8984 16.3205 441148 459902 876946 -228814 -456466 353752 
329 1 28.4315 23.3934 10.8038 16.9468 1.06111e+06 -49357.8 616001 -101252 -48530.7 178491 
268 1 28.6732 25.1649 9.0959 0.546867 -27026.9 140700 101823 -108131 -2601.52 105769 
267 1 29.2217 22.8299 8.31595 13.0539 979793 -19169.5 621406 -211217 -273179 392374 
272 1 31.0382 24.6352 8.52817 5.65194 -290504 142133 -90268.5 -355367 30413.9 137485 
333 1 30.9343 22.7911 10.2021 13.3772 1.05984e+06 -373407 329172 -93727 259095 -26900.2 
330 1 30.4143 25.0532 10.8911 0.520055 -307349 -655254 -223650 -315509 -128800 -73493 
271 1 32.8014 22.5846 8.48049 17.3565 1.07423e+06 942578 1.00318e+06 -240268 -113452 -32232.8 
334 1 32.7938 24.5402 10.381 5.36918 -215985 19671.5 372523 293693 47114.8 48434.6 
3012 1 34.54 24.4313 8.55699 0.468413 73280.2 -365959 540825 124977 108293 48761.2 
3081 1 34.451 22.6343 10.2937 11.9804 760942 294726 650623 47435 127903 237309 
3011 1 36.1446 22.6292 8.51505 15.5025 259194 109018 728426 183561 720237 -119928 
225 1 23.3106 28.3384 7.68909 21.6888 904817 1.01286e+06 185062 -134241 194195 590272 
209 1 24.5591 25.9768 7.73744 5.15352 -671454 -53849.8 843945 -1.03656e+06 -224872 164296 
212 1 24.5293 27.7842 9.82185 8.62542 -69994.1 208333 739003 117478 -365970 335398 
210 1 26.1694 27.7551 7.64257 1.69937 471323 -705840 1.03733e+06 -390300 -180743 21727.2 
211 1 26.2319 25.9831 9.62957 5.45969 -115948 570826 837450 -205361 -253954 -49059 
216 1 28.0464 27.6964 9.49462 5.48265 -225248 200291 686424 -616008 165784 -233306 
283 1 30.4013 27.0215 9.05404 0.178075 -760314 -460950 175946 -207.916 -322524 33434.5 
349 1 32.0301 26.8469 11.0074 0.733523 196551 -243308 196773 -173558 -31053.5 -174008 
288 1 32.1479 28.7568 9.15625 0.164162 206092 358100 1.00412e+06 -445316 -275765 -107981 
287 1 32.8027 26.3361 8.49794 5.64233 -18536.2 509483 738401 -285535 -210733 -60287.8 
3030 1 34.6449 28.1385 8.41935 5.44273 303656 277910 692879 -568147 231324 262630 
3099 1 34.5932 26.3841 10.2749 5.39011 617726 200752 632586 -212716 60988.3 -125934 
350 1 33.909 28.7085 10.9772 0.166859 265633 214155 548228 35420.8 -236179 139642 
241 1 23.6296 31.8424 7.71824 15.9626 317172 1.06026e+06 953947 38777.7 -216848 6504.07 
228 1 23.5079 30.0564 9.49217 18.066 346074 271559 361223 -54683.1 625639 -199356 
226 1 25.2989 29.9278 7.89725 6.31436 -551371 -615597 -882957 661405 -32810.8 -346233 
243 1 25.3551 31.8239 9.48531 5.26247 -193771 195907 -372903 -3493.7 84016.8 -188943 
229 1 27.9775 29.4946 7.70476 2.16879 456308 -614692 1.56837e+06 -134168 30926.9 317789 
245 1 27.1164 31.743 7.71502 6.61768 -133036 -216506 -1.50285e+06 387072 -206841 -61379.1 
227 1 26.2817 29.4778 10.043 6.48635 515690 -433874 -345271 -355641 -915275 481955 
232 1 27.9968 31.3227 9.97104 5.42629 -305748 -915701 -61772.9 -746215 -809744 170268 
230 1 29.74 31.2257 7.68733 1.95038 303832 -164969 1.98327e+06 -260591 -182984 -20246.9 
231 1 29.7102 29.3292 9.7527 5.06684 53289.1 -54054.9 849263 -694971 -9095.37 -310604 
236 1 31.4806 31.1802 9.68999 5.4018 842981 1.06614e+06 1.26085e+06 26543.6 217300 25901.1 
303 1 33.8809 30.5641 9.10606 0.35279 63929.5 -215009 467628 -67234.9 -197735 -195268 
3048 1 35.8332 32.2712 8.99201 0.374119 -256020 -156985 274192 -55266 -18915 43583.7 
3117 1 35.6476 30.5136 10.9277 0.31558 -54554.6 -95647.4 85610.2 -75095.5 12358.9 -79949.7 
1497 1 23.5647 35.6583 7.97692 15.9178 572144 915916 975752 -48321.2 -114403 331286 
244 1 23.6782 33.7639 9.50632 16.2786 -141927 741302 774612 -216541 123071 186308 
242 1 25.3505 33.722 7.70757 0.632777 394451 651979 394639 -159762 146458 277233 
1499 1 25.4611 35.4078 9.66769 0.35784 -805851 -783186 139613 -337684 -145244 59478.7 
1501 1 27.3683 35.4165 7.6991 0.732683 -10161.7 -364662 352796 -95279 -28122.5 64445.4 
248 1 27.2072 33.6073 9.52839 5.56007 -295014 -428206 -234040 415726 45070.3 42095.2 
246 1 28.931 33.5522 7.71855 6.89522 -531987 -1.04019e+06 -1.64213e+06 323760 -61700.3 252220 
1503 1 29.0682 35.3685 9.61254 5.0076 -587415 -618478 -793128 -23312.5 234259 210530 
249 1 31.5671 32.9266 7.78142 2.59818 817170 -680548 1.75848e+06 -162707 34075.1 -151418 
1505 1 30.7751 35.1866 7.78643 6.84057 -334093 -762615 -2.16719e+06 334755 -226482 22679.8 
247 1 29.6177 32.9861 9.97076 7.03231 -676568 -950511 109888 -711787 -332508 708645 
252 1 31.6037 34.5299 9.90138 4.9908 643361 123599 -172170 152636 -484641 814133 
250 1 33.3808 34.6355 7.92144 5.92489 39923.7 -219330 1.54402e+06 -372889 60480.1 73374.8 
251 1 33.4902 32.8627 9.71839 5.85239 145419 -564457 633288 96456.7 -47557.6 165044 
256 1 35.1895 34.6649 9.68768 5.37511 13453.1 281116 467985 -25707.2 -105715 -125050 
257 1 23.7955 23.835 11.9903 45.5229 -495351 -233301 904866 -39248.2 609252 -35459.7 
260 1 23.8047 25.2022 13.9899 20.3776 357490 374626 1.37146e+06 -509.577 11361.5 -54839.6 
259 1 25.5475 23.4151 13.9591 17.5268 281986 -43912.4 479620 145073 580598 7428.31 
258 1 26.0368 24.1207 11.5045 9.18812 -1.06709e+06 -11238.6 936614 -335651 -106693 -109946 
264 1 28.0407 23.903 13.2601 9.50974 407846 -131177 609743 -245008 -188894 121357 
331 1 30.3509 23.2722 12.5549 16.4436 -80236.6 84251.6 282616 14218.4 242821 270921 
336 1 32.1018 25.0892 12.8258 0.372773 317347 -556996 -367822 4937.79 -100227 369860 
397 1 32.1098 23.3368 14.4672 16.6073 -170009 -206030 286436 173355 321002 337901 
335 1 32.6636 22.6681 12.1273 14.8985 241511 480967 419446 98363.9 175193 -19288.8 
3153 1 34.4121 22.7241 13.8864 13.8592 23442.2 -478083 510513 -252218 367720 143561 
3084 1 34.5222 24.5062 12.212 6.41983 272275 84402.8 -224116 253159 -65717.3 142825 
398 1 33.9789 25.0776 14.5584 0.077798 -53766.5 -563198 -35600.6 258053 288115 -498007 
273 1 24.4842 26.0693 11.5368 10.6978 -316649 -594683 371236 -298564 242422 254515 
276 1 24.5406 27.5372 13.6192 10.5833 96567.3 234204 618710 60274.5 -148343 -94005.5 
274 1 26.2655 27.6989 11.6552 0.377368 -267824 -285307 87648.6 -458544 -538782 337235 
277 1 27.9135 25.6984 11.5563 5.71616 286327 35263.2 454978 -297539 -178612 -5344.11 
275 1 26.2039 25.736 13.4185 6.09357 -94310.9 -189199 -527659 67606.4 330260 69947.3 
280 1 27.9866 27.542 13.4927 0.0949209 -691009 -172507 -156459 717023 176603 285132 
278 1 29.6978 27.5577 11.6217 5.7846 231736 474077 873134 -147993 280228 429064 
279 1 29.6528 25.7331 13.3454 5.77164 -117675 -194361 -175729 -89731.6 218990 226055 
284 1 31.6236 27.47 13.3765 6.0677 511907 140747 77440.5 153906 333846 69891 
351 1 33.9759 26.9237 12.7415 0.31166 472526 177791 525034 24278.8 238673 125711 
3102 1 35.7087 28.758 12.8041 0.367351 -612327 -219916 635919 -311126 324782 -217586 
3171 1 35.9084 26.8106 14.7073 0.394719 -752883 242553 25852.2 76768 571483 -47937.2 
305 1 23.6794 31.7019 11.321 15.6419 304373 889929 833387 -55850.1 161611 -70604.2 
289 1 24.3586 29.3492 11.8813 10.7466 621230 852364 1.41449e+06 155553 53378.6 92150.2 
292 1 24.3567 31.2832 13.7301 11.0306 574175 775446 902574 -503327 14172.8 -215829 
291 1 26.3664 29.3437 13.6053 0.575928 -244764 -81767.4 17750.2 -203299 288515 432703 
296 1 28.0069 31.211 13.5704 0.205866 150053 -595765 224653 -145517 144649 -7655.38 
293 1 28.0438 29.4815 11.7681 0.562314 -669927 -120624 -193245 -481536 -245042 95687.3 
290 1 26.133 31.2242 11.7832 6.12419 158340 13940.9 82644.9 -117644 -202052 -312486 
300 1 31.7051 31.179 13.4766 0.364671 153155 83844.1 370878 -42052.3 149257 441931 
295 1 29.821 29.4257 13.5618 0.305184 526301 738050 604177 159623 -225190 293166 
297 1 31.4995 29.2767 11.5893 6.0609 450187 470618 689159 -30565.6 76628.1 82970.6 
294 1 29.7567 31.1817 11.6387 0.28854 -268084 -279232 -145243 -410677 -289535 325224 
298 1 33.3412 31.1736 11.5857 5.71724 -287836 327512 52293.5 306436 273946 202869 
304 1 35.106 31.1029 13.366 5.41913 -702251 -745158 156616 -41227.1 177094 -132106 
299 1 33.3927 29.3642 13.4293 5.99744 -541669 -139854 160165 14884.6 367562 -298300 
1569 1 23.7191 35.5049 11.4718 17.3598 28194.9 435817 827458 10059.4 87891.3 209044 
308 1 23.7671 33.7085 13.1511 13.5394 -410527 8470.65 47037.4 -433997 400642 132274 
1573 1 27.3519 35.349 11.3583 5.79154 -376293 -289912 -652966 199979 -60511.3 88424.1 
307 1 26.1722 32.898 13.7134 5.41673 -164131 -335978 369353 -393359 55076.8 256723 
1571 1 25.5111 35.3507 13.2668 5.71212 -980763 -160783 -30228.6 -431186 155392 47965.4 
309 1 27.9027 32.9446 11.8227 6.03658 -395891 -933844 -1.17481e+06 -211861 -49258 -106627 
312 1 27.9263 34.6284 13.6782 5.6929 278080 138582 3339.95 121824 54239.6 -7533.57 
306 1 25.3967 33.6398 11.3585 5.36509 -202962 70327.6 -345427 209203 402923 270134 