ITEM: TIMESTEP
17200000
ITEM: NUMBER OF ATOMS
5780
ITEM: BOX BOUNDS pp pp pp
3.5712609549630141e+00 6.8728739045052507e+01
3.5712609549630141e+00 6.8728739045052507e+01
-6.0070631663791376e+00 7.8307063166394670e+01
ITEM: ATOMS id type x y z c_csym c_2[1] c_2[2] c_2[3] c_2[4] c_2[5] c_2[6] 
67 1 23.6873 21.4093 -2.64294 26.4103 324179 166158 1.2298e+06 -84359.8 473441 -101661 
69 1 25.3286 21.5397 -4.40632 13.889 -269387 -906238 152934 -355533 -53686.7 32762.4 
65 1 21.5165 21.9738 -4.51694 42.3584 236765 116824 -156480 -317972 149867 274508 
81 1 21.541 24.865 -4.30402 11.9095 -232435 1.37981e+06 1.10262e+06 345160 279313 -196552 
66 1 23.4293 23.3508 -4.25017 6.05543 -752764 -1.0913e+06 -39046.2 -267436 -1857.79 -356039 
73 1 27.6532 21.9292 -3.75555 11.1974 139456 213496 585094 -292023 -49184.6 38485 
70 1 25.8692 23.7111 -3.68712 5.38859 309662 -555594 -358903 -275516 -217171 -116234 
12 1 27.5644 23.8126 -5.5848 5.68393 -786522 -634796 -473073 -660198 -580021 220091 
11 1 29.4706 21.8212 -5.52121 11.0093 -119014 222227 608826 -826485 -56702.6 -40553.9 
77 1 30.9117 21.881 -3.56305 16.8625 963891 459288 585479 -341545 -68471.9 78324.8 
74 1 29.1532 23.8776 -3.76256 0.974266 24790.3 435471 328163 -162736 77439.4 -43944.2 
16 1 30.9516 23.6655 -5.42557 0.318037 -404927 -373994 395354 -305720 326164 169659 
78 1 32.5959 23.7046 -3.52491 0.239147 193496 2140.81 652831 10459.5 3436.92 -272573 
15 1 32.627 21.9042 -5.41584 16.0117 1.10938e+06 15354.3 990143 283385 85694 175883 
2793 1 34.424 21.9809 -3.45381 15.8668 973694 248660 1.39268e+06 81958.9 -49913.7 -135852 
2724 1 34.3962 23.7164 -5.42888 0.154393 669945 151792 674319 47282.2 -297543 27780.1 
82 1 21.9209 27.3491 -3.63414 9.698 642159 747418 975739 97208.5 -75755.9 177945 
24 1 23.7364 27.3601 -5.60039 6.44303 -673463 -270642 114333 -570275 -327453 -342088 
85 1 23.8499 25.6858 -3.65447 5.96178 57068.3 -53374.2 474182 -790288 -67899.2 -203027 
89 1 27.4959 25.7242 -3.72307 0.483405 -202317 -31625.7 653733 12285 -149828 235960 
23 1 25.6934 25.6288 -5.45954 5.9867 105280 -377367 -113825 -203556 57714.8 -197425 
86 1 25.5446 27.3851 -3.57653 0.313738 -43245.8 -484025 502290 -16073.8 -157108 171863 
28 1 27.4292 27.4717 -5.5236 0.247348 10745.2 -691820 -314264 -52711.7 -300786 274392 
93 1 30.9836 25.6511 -3.54763 0.336058 -78454.1 268897 242955 127641 450491 364.691 
90 1 29.2114 27.4295 -3.59514 0.0995485 -42738.9 52770.6 684961 47177.9 -1668.38 216019 
27 1 29.23 25.67 -5.62847 0.637357 152233 17963.6 7050.22 -327590 -99532 576903 
32 1 30.9859 27.4751 -5.40937 0.347182 -306997 -166517 -26857.5 154840 220203 423725 
31 1 32.6159 25.6035 -5.45894 0.613378 184107 206116 -102721 194052 -3693.53 417559 
2811 1 34.4171 25.5245 -3.55157 0.175666 524586 441843 473890 -13224.4 175152 219743 
94 1 32.7503 27.4372 -3.57443 0.294004 -269312 -402185 257963 -129572 -204939 104395 
2742 1 34.6149 27.3011 -5.35837 0.595943 169790 25891.1 119958 235026 -196203 -59799.2 
36 1 21.5283 31.6065 -4.7006 24.4003 343951 841968 1.17345e+06 -132624 -441332 34201.5 
97 1 21.4969 29.7553 -2.93994 26.7889 241621 1.03801e+06 864125 57954.7 39564.1 -144697 
101 1 23.8189 29.1294 -3.61073 5.94719 -272131 252263 324374 222091 239544 -106476 
35 1 21.9558 29.2034 -5.40599 9.90895 778352 608019 885232 110178 -160972 -61745.2 
40 1 23.971 30.9922 -5.48149 5.7843 108959 -474458 -375439 8704.82 171984 -265653 
98 1 23.2903 31.5825 -3.06148 5.06794 -851962 -562688 -29864.5 268625 -173846 63152.6 
105 1 27.4272 29.176 -3.68538 0.450627 -49569.1 312509 419535 225783 216245 -83208.2 
39 1 25.5589 29.1593 -5.44884 0.378119 -196088 -299478 122727 409257 -42181.7 -265554 
102 1 25.5903 30.8857 -3.6005 5.6192 -653808 -183810 -121889 -284177 91449.2 -8927.11 
44 1 27.285 31.0542 -5.47592 0.628039 128271 -77947.5 -263931 134772 -6521.28 75512 
43 1 29.2047 29.2574 -5.44037 0.194449 -406561 -2121.09 -116962 -275684 -35297.9 111009 
109 1 31.0709 29.2622 -3.52002 0.518268 -609158 -616978 174030 -375282 -314410 -348586 
106 1 29.1994 30.9702 -3.59534 0.332861 -39024.9 -264169 81956.2 -16213.8 307018 -94548.1 
48 1 30.9221 31.0396 -5.37758 0.291763 -359923 -246129 -478194 -627764 318732 425871 
2829 1 34.5545 29.0813 -3.58732 0.461555 -748112 -593404 -304565 -400932 -495580 172151 
47 1 32.8734 29.1574 -5.35293 0.505252 -583858 -359843 -730537 -695024 119057 153433 
110 1 32.7189 30.8819 -3.48926 0.214644 -438432 -666273 114084 -763246 139093 269784 
2760 1 34.4946 30.8994 -5.33187 0.179423 -1.29783e+06 -974181 -185510 -192955 -218365 215539 
2830 1 36.1321 30.9518 -3.51685 0.418868 -5629.3 -105141 231579 82654.8 -268132 151283 
1281 1 22.6801 35.7994 -4.2382 23.2033 151253 905101 606791 300124 107417 -161387 
51 1 23.2046 33.4374 -4.81334 5.33983 -499967 -706.002 -375400 24432.8 -79876 249381 
117 1 24.9344 33.4566 -3.03977 0.475777 -758531 -215511 -113110 -189371 -114053 22062.4 
56 1 25.0238 35.2551 -4.78802 0.148753 -513679 -257274 -314619 292494 369411 -22645 
121 1 27.2937 32.627 -3.44041 5.12403 247591 647804 571243 -4860.01 155577 -140168 
55 1 25.5425 32.8228 -5.48097 5.70836 -762353 -459191 -5087.96 -79882.3 -1665.54 -311509 
60 1 27.3911 34.6257 -5.24656 5.62362 28797.3 -247765 596094 252789 292610 -351924 
118 1 26.7013 35.2205 -2.89596 0.202748 -377096 128070 -110950 123392 125147 -33442.7 
125 1 30.9808 32.7393 -3.50231 0.288085 -301185 -8215.45 33664.1 -380947 -29353.2 -71992.6 
59 1 29.1258 32.8567 -5.21022 0.623998 -190237 286567 227641 240844 -172023 483486 
122 1 29.1417 34.5957 -3.22985 6.28626 338755 311102 -266470 117327 -247079 -58851.3 
64 1 31.074 34.5141 -5.32276 0.394101 221334 -245466 243168 75827.4 -254349 -110615 
2847 1 34.4876 32.7595 -3.40026 0.236754 -211159 -467476 30107.9 43255.5 -66034.6 17569.6 
63 1 32.7721 32.6687 -5.26389 0.305907 -515080 -407829 44017.5 -1107.92 -181701 15465.2 
126 1 32.673 34.5234 -3.37845 0.362971 -224126 -711044 -187608 186434 -112075 -284437 
2778 1 34.4958 34.4895 -5.25741 0.180921 -172259 -401390 123897 -95351.3 -470192 474446 
68 1 21.7466 23.031 -2.37545 24.3834 224333 680176 585072 -130229 45007.1 -412205 
133 1 24.2953 22.0012 0.00590421 12.8251 414822 226019 768948 -813881 11795.6 266670 
130 1 22.213 23.6424 0.0763101 13.0861 1.08148e+06 603488 1.49685e+06 -150424 98099.3 -9526.83 
72 1 24.0516 23.7155 -1.88452 5.67953 79513.7 -73839.2 394653 -492010 -181641 -82741.4 
71 1 25.9148 22.0386 -1.85958 10.9033 133071 -22935.3 379734 -111710 178803 281236 
137 1 27.389 21.9638 0.226191 16.3109 1.19644e+06 275263 1.22553e+06 380877 -181404 -140006 
134 1 25.8121 23.7939 0.100646 0.45982 -524966 -958052 216498 -479725 -146103 17057.3 
76 1 27.5614 23.9441 -1.7671 0.648276 173021 391401 544791 -391376 -37914.1 -192901 
75 1 29.1853 21.9232 -1.7146 18.1736 1.22652e+06 698951 1.30648e+06 -271621 -205252 -84637 
141 1 30.7859 22.0244 0.196063 15.7493 967621 263692 884135 -39548.6 -382713 8245.91 
138 1 29.0947 23.8821 0.220293 0.401176 -4173.26 95957.1 228299 11254.8 -63848.5 -273269 
80 1 30.8486 23.7468 -1.69617 0.279982 163529 -305775 501263 -72087.6 184829 -69674.3 
142 1 32.6289 23.7142 0.133178 0.235862 -210866 -768715 524183 419252 7310.02 250393 
79 1 32.6519 21.9039 -1.60266 17.8443 1.00113e+06 601021 774065 66596 -345654 -220450 
2865 1 34.313 21.9686 0.139315 16.2197 688679 179938 916710 216007 -328886 12998.8 
2796 1 34.4964 23.7754 -1.66772 0.31457 360277 -152153 394407 32340.1 80091.2 -47551.1 
84 1 21.5263 27.9369 -1.09423 29.5844 -563960 911121 783934 256023 -19087.4 -160754 
145 1 21.6886 26.025 0.567398 24.4372 -415571 686406 159977 366695 111610 -331366 
83 1 22.0674 25.5261 -1.78476 9.43689 532058 835317 533264 -256815 229134 -54798.1 
149 1 23.95 25.5599 0.0577891 6.0393 -523897 570573 75682.6 -4301.93 554114 -20412.6 
88 1 23.7377 27.3795 -1.683 5.22007 -373103 -13728.1 58746.5 292200 389746 -229956 
146 1 23.2509 28.1676 0.621781 5.33946 -668943 208158 -396126 91930 -6758.26 165968 
153 1 27.3518 25.7132 0.0557496 0.837215 -103513 -178964 -8764.12 -41594.5 116574 204287 
87 1 25.6516 25.6231 -1.81748 0.184436 31459.2 203658 444169 -360489 -176668 340491 
150 1 25.544 27.4356 0.183822 5.41966 -291359 -86864.7 554296 78863.8 196810 26877.5 
92 1 27.3127 27.4411 -1.69765 0.384311 73737.6 -315377 453826 -354510 -85907.5 233220 
157 1 30.9531 25.5004 0.163786 0.315046 -131565 -266594 383600 740.456 47308.1 75420.2 
91 1 29.2845 25.6649 -1.74529 0.422827 -628408 -456262 163118 -769173 221787 2997.58 
154 1 29.251 27.3879 0.184283 0.379017 -280902 -54272.3 145055 -191690 187034 132161 
96 1 30.945 27.3422 -1.60722 0.230766 -409261 -464434 56137.7 -706375 124383 -344137 
95 1 32.695 25.4649 -1.69481 0.264151 -183356 201396 114218 80846.3 44147.6 28070.5 
2883 1 34.4169 25.5102 0.218261 0.123359 295890 304204 591378 -325484 -244.559 -52606.1 
158 1 32.6691 27.3283 0.287149 0.123165 -174719 -108478 681302 -44835.7 -65133.5 222155 
2814 1 34.4111 27.3374 -1.62961 0.104745 -51726.6 -110651 319452 -110831 -255762 -79531.7 
2884 1 36.0929 27.3135 0.268177 0.269915 103794 61058.1 518673 259256 17850.5 84529.5 
99 1 23.3254 29.8187 -1.23906 5.57033 -432146 -53285.2 -84380 122073 -125950 253198 
104 1 25.0701 31.6324 -1.19625 0.277893 575110 -281582 633549 -509353 9819.99 32488.5 
165 1 24.9932 29.9067 0.652555 0.239279 -79128.5 -91193.6 -53718.1 -221632 9689.57 -83286.3 
113 1 22.509 32.1797 -0.693329 23.3401 984591 628117 745831 65348.5 272242 569609 
103 1 25.6456 29.2232 -1.78824 6.51206 -92237.1 -213137 410310 472370 122726 54036.4 
169 1 27.43 29.1244 0.246961 5.13213 158860 -23133.3 291082 -73725.2 189003 71440.9 
108 1 27.517 30.9078 -1.58651 5.2551 -323728 -323392 483102 -76406.3 -106664 360607 
166 1 26.9294 31.5601 0.85143 0.880293 -348734 -35372.2 529341 -140407 451431 -109453 
173 1 30.9715 29.0959 0.191713 0.361743 -60097 -265210 584624 -309328 179531 -116443 
170 1 29.1547 30.9597 0.306413 6.19813 -1.33502e+06 -529786 -89188.6 -316665 -50535.1 184634 
107 1 29.1095 29.1302 -1.62814 0.387198 -142890 -256436 569922 190211 87035 150179 
112 1 30.9064 30.894 -1.64558 0.131866 -205587 -523410 -180649 392430 -64832.1 -389130 
2901 1 34.3837 29.0733 0.235538 0.284086 270469 40418.6 568227 1232.37 -23190.2 127343 
174 1 32.6125 30.9862 0.224813 0.406546 275512 243781 511485 28029.7 77395.4 -100403 
111 1 32.678 29.1328 -1.6588 0.135154 -339436 -176793 -166206 125902 -355127 83254.9 
2832 1 34.4454 30.9571 -1.54774 0.139362 154044 411470 560051 46199.8 -1473.31 227852 
2831 1 36.131 29.0849 -1.61107 0.206145 -358740 77716.2 460665 44950.7 55719.2 81017.3 
52 1 22.5744 33.8025 -2.42149 19.6676 74939.1 356067 130925 496661 209961 111033 
1283 1 24.3669 35.8135 -2.42476 5.68176 -311597 274838 -481145 534143 149134 67187.3 
114 1 24.2866 34.0314 -0.658381 5.4554 -230200 199131 -129070 142632 68995.3 197382 
1357 1 26.0684 35.8492 -0.52039 0.323458 -1.33655e+06 -114234 -420846 364996 -197365 -200784 
119 1 26.6727 33.4448 -1.10632 0.456504 199708 6781.84 365321 -539205 175147 -242138 
124 1 28.5044 35.167 -0.985573 0.19439 -71905.2 -81594.2 -1.08798e+06 94748.3 629455 -617395 
185 1 28.5831 33.3608 0.856952 0.33504 -726567 -815835 644833 -459173 335780 -277314 
189 1 30.8182 32.6697 0.150011 5.61986 -1.20664e+06 -611001 -223632 -37629.7 -5242.4 -1194.11 
123 1 29.1889 32.6284 -1.61435 5.52642 -467871 -431391 19556.7 -380254 -587040 241079 
128 1 30.8875 34.4895 -1.54112 6.02075 -448120 -245218 21599.9 167350 -335626 352420 
186 1 30.2161 35.1162 0.979813 0.774806 -192283 -422674 491064 -330283 110321 95880 
127 1 32.6671 32.754 -1.56487 0.11276 -136819 -31750.7 231216 96692.7 160789 428506 
2919 1 34.4543 32.777 0.367814 0.24321 -90162 -15251.2 221148 51149.7 448312 -23859.6 
190 1 32.6662 34.5445 0.356238 6.50112 444589 -618805 1.07983e+06 193347 14254 -273166 
2850 1 34.5509 34.4 -1.5324 0.335069 -169222 -426600 180738 167587 -80256.9 -72785.6 
129 1 21.7592 24.3347 2.49455 27.9221 413542 690121 882988 41257.6 -19795.6 -20202.7 
193 1 21.9642 22.5571 4.25747 46.1677 -617891 70916.5 -174307 216184 -261301 -197274 
131 1 22.7009 22.0492 2.01467 37.3468 400920 -47443 270481 -350555 19864.1 -56317.7 
197 1 24.2497 22.0183 4.01665 16.6007 -208807 621036 51383.2 -30088.3 755063 -104232 
136 1 24.1914 23.8876 2.04654 4.40288 -787469 -1.4477e+06 648176 -129468 -128095 -61183.6 
194 1 23.3389 24.5567 4.4663 5.18622 -1.17088e+06 -817093 -159740 -443172 -88423 134049 
135 1 25.5967 22.0078 2.03959 14.5437 332232 -245366 -221701 505769 84587 114695 
201 1 27.2931 22.0074 3.93874 14.2875 1.08281e+06 629999 1.04566e+06 -220716 220577 35186.4 
140 1 27.3278 23.8537 2.01955 0.260615 -630729 -545605 173193 119857 -35844.7 -87423.1 
198 1 25.6948 24.0475 3.92995 5.32078 -653934 -505163 5685.55 -391826 60603.6 -285826 
202 1 29.0346 23.78 4.03178 0.258705 378736 -24613.5 655422 -207352 -50625.9 -83725 
139 1 29.0086 22.011 2.1799 16.495 850687 487059 880784 154132 32906 -217969 
205 1 30.8317 22.0252 3.94277 16.6189 1.1217e+06 413067 1.36553e+06 -125147 -338899 221787 
144 1 30.8673 23.7638 2.08215 0.141546 651324 162683 684480 302941 -190338 152068 
143 1 32.582 21.9483 1.96056 16.3908 976112 370530 1.27454e+06 -35975.8 21151.9 203107 
206 1 32.5988 23.7445 4.01136 0.0965406 24776.3 61287.8 563812 -459244 -440047 258419 
2937 1 34.2978 21.8528 4.01101 17.75 1.27537e+06 356365 1.36096e+06 -120104 -107856 35220.3 
2868 1 34.4097 23.6445 2.11139 0.188388 248727 51072.3 680513 -161620 -326598 -14240.9 
2867 1 36.0709 21.7803 2.13395 18.1978 1.23835e+06 616335 1.27585e+06 110858 -158602 -4733.53 
2938 1 36.0102 23.6912 3.96891 0.197486 143262 -309434 547668 128079 -448712 287745 
147 1 23.4171 26.2665 2.34798 5.38447 -320953 9960.27 395606 54149.4 -5813.71 -331033 
152 1 25.0036 28.1506 2.56059 0.296924 -566328 -711544 559934 -266968 326329 -398840 
161 1 22.6601 28.5679 3.06415 19.8705 -170321 828486 873838 57317.2 314039 1067.04 
213 1 24.9498 26.3343 4.46784 0.213383 -831520 -793100 409065 -10121.6 139644 -186047 
151 1 25.81 25.7109 1.99239 5.28103 -1.06185e+06 -986695 43626.5 -202981 45689.3 433272 
217 1 27.3751 25.7412 3.98035 5.60979 -816319 -502362 369481 -874073 -398123 164968 
156 1 27.4705 27.4441 2.15822 5.04972 -223492 -657329 375998 -577871 -291556 403632 
218 1 29.0436 27.4785 4.04946 6.13485 -761121 -506071 515152 -395957 -52750.1 197049 
155 1 29.0693 25.5311 2.05212 0.371783 -79109.2 -281832 609541 -280029 14382.1 -278149 
221 1 30.7845 25.5808 4.01266 0.156311 480464 212764 444566 -357846 9937.4 614711 
160 1 30.8527 27.2494 2.13303 0.392765 256025 333136 442227 -64256.9 -141854 162116 
159 1 32.7556 25.5806 2.18763 0.626873 395731 338864 477890 -1151.2 -101586 82520.1 
222 1 32.6114 27.2687 4.07001 0.209061 78445.9 -408351 8475.36 -234358 -78537.3 310371 
2955 1 34.3213 25.4842 4.12244 0.275009 -515416 -3210.29 140564 233629 -232659 141442 
2886 1 34.4505 27.3595 2.18014 0.266204 -39465.2 179619 533935 -95547.8 80366 -70459.6 
2885 1 36.1402 25.4394 2.17632 0.221635 200088 290638 262513 -113051 -396049 214976 
100 1 22.6215 30.5202 1.23033 20.9129 137661 965129 1.14682e+06 89072.9 -138465 -2125.36 
115 1 24.352 32.3221 1.22323 5.56051 -14285.4 -58758.2 -161487 -312439 305513 15527.3 
162 1 24.3177 30.4466 2.99534 5.45697 -552316 -283365 30745.4 127711 13389.3 -60353.9 
181 1 26.035 32.2598 3.11883 0.0971137 255496 90265.9 -203185 -76095.6 -14544.9 -33894.8 
167 1 26.7249 29.8551 2.6695 0.206854 256.329 -219980 459244 -253384 251484 38296.8 
172 1 28.6506 31.5439 2.79594 0.919075 -53232.7 444636 416248 18670.1 446478 -216459 
237 1 30.8243 29.2051 4.00728 5.58261 -588189 405147 536306 -661236 -161051 115737 
171 1 29.1888 29.1747 2.1482 5.79732 -207128 -563727 439707 -622621 -390966 156314 
176 1 30.8836 30.9357 2.15758 7.2384 -719833 -179153 794462 -251628 61306.4 116113 
175 1 32.6476 29.0648 2.31715 0.666128 84584.9 284288 449422 83005.8 -27990.8 -142998 
238 1 32.6347 30.8687 4.09185 5.74706 -107531 -530951 198012 -187540 -163874 -172303 
2973 1 34.35 29.046 4.12276 0.160717 -146174 38179 95546.5 28474.3 -531892 -91087.4 
2904 1 34.4191 30.8748 2.26305 0.22076 310503 368715 826512 43622.7 259495 -120357 
2974 1 36.1476 30.8763 4.23521 0.489477 -363434 -796849 -301096 -139473 -13418.5 15564.4 
177 1 23.5917 32.9362 3.38802 11.9182 -51461.9 841444 259441 -212591 181103 39152.1 
116 1 23.671 34.7867 1.66647 11.2295 -50349.5 378670 253854 -176752 -286247 227860 
178 1 25.2148 34.72 3.54924 5.46619 -542402 -273053 -622075 -300396 -122780 133543 
1359 1 27.7904 35.7429 1.22682 0.634115 -214434 -311769 -771318 -104018 20616.5 23132.8 
120 1 26.1067 33.9916 1.26868 0.2877 -239916 -14432.2 133802 -735118 31596.6 129011 
182 1 27.8381 34.0787 3.15719 0.181498 374159 -86185.7 -1.18643e+06 -339974 106587 -218998 
1433 1 29.5241 35.8723 3.27632 0.881109 251308 -708571 -360218 -28476.9 353770 -39979.2 
187 1 30.406 33.3539 2.69422 1.10987 203714 316260 766103 -60737.7 135532 -4228.47 
192 1 32.1311 35.1965 2.87942 1.11802 117428 -555868 -544695 -211897 496564 -315307 
191 1 32.6794 32.686 2.12366 6.77626 -666558 156507 836251 -42154.9 424574 -70632.3 
2991 1 34.4546 32.6381 4.05309 5.70248 -191462 -642295 421134 186638 235915 93019.5 
2922 1 34.4801 34.3953 2.3101 5.83907 130522 -628610 364569 -192946 62417.8 -54166.1 
195 1 23.3595 22.7852 6.18682 27.0491 100460 -751844 -57453.5 -42896 -114017 -47285.5 
200 1 24.965 24.5884 6.31328 0.238705 -1.63702e+06 -386329 -123224 -758192 -132685 -18587 
132 1 22.6423 24.9887 6.78307 36.1382 -103867 362495 570598 306952 317654 -446333 
199 1 25.8542 22.0712 6.06476 17.8437 618035 309362 742473 -697921 108890 -100845 
204 1 27.3682 23.8647 5.94566 4.81241 -351105 -351364 857292 -545757 119854 -4496.7 
265 1 27.4135 22.0876 7.96909 16.8994 329346 303907 443762 -548852 -359086 83881.7 
203 1 28.9935 21.9845 5.89963 16.2098 1.55041e+06 504183 1.18053e+06 289958 -297094 69929.3 
266 1 29.0966 23.7718 7.80477 5.46232 -70916.4 -186974 633127 -548126 -293903 -54031.5 
208 1 30.7786 23.9518 5.87429 0.8008 275919 241309 89623.1 38172.8 -282897 45307.9 
269 1 30.7097 21.8524 7.70311 17.2681 993834 654174 1.16523e+06 79798.3 -302161 -109110 
270 1 32.4429 23.7322 7.72996 0.217558 95437.1 -119716 -132941 216256 -180620 35515 
207 1 32.4563 21.9553 5.89188 16.78 754464 185154 935481 -460102 -105809 -60510.6 
3009 1 34.2535 21.9094 7.68918 18.3831 1.19545e+06 378359 946024 41763.8 -177.76 118523 
2940 1 34.1606 23.6697 5.89503 0.497618 121801 -133866 229793 -153558 -137286 446954 
2939 1 36.0255 21.8746 5.818 17.1744 955443 564317 1.1176e+06 -254342 -232221 109991 
3010 1 36.0417 23.7829 7.75587 0.559285 -169053 -73863.2 267941 -111740 175928 23281.4 
148 1 22.5874 26.8176 4.81613 23.5213 12182.5 431069 1.14834e+06 395530 97379.1 -69334.9 
163 1 24.3105 28.724 4.99669 5.03728 -189103 -106777 -640035 -57663.4 535202 -97995.9 
209 1 24.2118 27.0013 6.76949 3.29915 42476 555878 830671 229046 329977 275855 
214 1 26.7822 28.1416 4.63484 0.407152 -548171 -403879 1.04075e+06 -202441 193882 -125619 
215 1 26.5782 26.3394 6.51494 0.468904 -353747 -83708.2 786247 -617355 -98749.2 93281 
220 1 28.437 28.011 6.62031 0.363386 343341 158803 669602 -353809 -192020 -103228 
210 1 25.9682 28.836 7.07404 2.4772 451359 341194 1.23997e+06 -157513 -81986.2 143955 
219 1 29.0118 25.7011 5.88461 5.84103 -11641.2 -92049.1 522039 18606.1 -161699 -63376.4 
224 1 30.9006 27.4286 6.04257 5.6217 -516490 -358048 308316 -387047 -222116 243448 
285 1 30.7985 25.6151 7.75911 5.98924 -338480 -413448 478589 -374553 -47557.4 -89271.1 
286 1 32.5289 27.3326 7.80949 6.14474 -572552 -390656 -95163.3 60192.3 -148938 -241921 
2957 1 36.1057 25.5064 5.89256 0.184766 486967 285859 251209 13989.4 -159379 124856 
3027 1 34.2784 25.5457 7.85292 0.290899 34402.8 -593041 17502.5 64118.6 46835.6 495281 
223 1 32.5882 25.6252 5.93775 0.223793 -834572 -842788 -138709 -356609 237557 112359 
2958 1 34.2963 27.2939 6.02375 0.270826 -506129 -440487 -82089.5 -531920 -410697 129502 
3028 1 36.0559 27.2663 7.72168 0.39827 -138627 330967 258141 -435331 -286208 -59767.4 
225 1 23.4959 29.4746 7.0505 15.6826 73909 328267 -1.06945e+06 198189 197771 278893 
164 1 23.4566 31.1775 5.28722 12.9265 595428 1.13909e+06 940064 11559.4 -129900 409823 
226 1 25.2254 31.2273 7.07323 7.61965 -901690 -700326 -1.16975e+06 -309362 281706 -139550 
233 1 28.4704 29.8183 4.69191 0.409054 -236284 -751828 1.04616e+06 -527573 122148 -150411 
168 1 25.9959 30.4829 5.01213 0.228567 220846 -193545 -446082 -187557 657404 -496997 
183 1 27.7559 32.2737 5.01421 0.395903 410138 -108671 -63630.6 2635.51 511633 -252603 
229 1 27.8097 30.5706 7.0947 3.56688 165892 70522.8 1.7573e+06 -307011 103679 -181637 
234 1 30.2387 31.565 4.94857 2.29816 33380.2 193992 696226 -365579 -373641 132460 
235 1 30.1445 29.8248 6.74375 0.67307 -723414 -939211 570084 -360338 -106711 280793 
240 1 31.9486 31.4215 6.67623 0.292352 -1.00751e+06 -696233 163166 -71370.7 -267306 -2191.29 
230 1 29.6132 32.1517 7.32604 5.72893 3270.63 -305173 1.32394e+06 -811755 172240 -424523 
239 1 32.5064 29.1395 5.93191 5.77245 -320950 -896503 398651 -764406 102120 65476.2 
3046 1 36.1071 30.7927 7.97506 6.03575 117011 -122554 900315 -714765 -35782.8 -136439 
2976 1 34.279 30.8885 5.94723 5.62884 -538162 -933065 244604 114812 142458 -132570 
3045 1 34.3934 29.174 7.77551 5.54524 -279900 -141821 349248 -391512 505410 -204295 
2975 1 36.0375 29.1212 5.97681 0.402327 -164927 96250.3 -382140 -73720.6 114418 408108 
241 1 23.5066 33.0778 7.15844 16.3686 366301 1.19542e+06 1.18352e+06 -92246.9 276188 126671 
180 1 23.5078 34.8806 5.29753 15.7128 -134133 1.20886e+06 920094 -6542.58 133287 426887 
242 1 25.2722 34.8277 7.10677 0.82229 -260164 -199533 527228 -278692 -167650 20150.3 
179 1 25.2216 33.0381 5.33113 5.14769 -258471 -86040.5 -827055 -1025.33 -51728 279665 
245 1 26.9235 32.889 7.19146 6.18923 116654 -279822 -945806 -11881.9 97246 -150265 
184 1 27.1331 34.683 5.29336 5.36752 -252734 -520547 -971024 306342 343399 28700.5 
246 1 28.8493 34.6647 7.2413 7.76202 271974 72536.4 -366633 33395.2 69852.6 230526 
253 1 32.1094 33.1951 4.75882 0.813652 56283.5 -208821 1.47702e+06 -508405 101455 -194674 
1435 1 31.4502 35.6562 5.06752 0.522768 -372528 578.55 -522406 -107846 842758 -634595 
188 1 29.574 34.0148 4.9884 0.972148 199619 230874 335704 -136356 308193 -201645 
249 1 31.353 33.8131 7.26229 3.98553 834112 -5759.28 1.98574e+06 -451804 63950 19178.6 
254 1 33.782 34.9407 4.8556 0.949613 -667965 -712387 865606 -209318 36627.8 -229200 
250 1 33.2357 35.5602 7.29901 2.29214 792666 410388 1.77064e+06 -375329 144557 -64329.6 
255 1 33.8935 33.1601 6.66811 0.358109 553028 -473064 583456 -12736.5 -204529 25585.5 
2994 1 35.7079 34.9295 6.66531 0.395793 -169951 -120541 778096 -461261 173424 191069 
261 1 24.9389 22.8151 8.25662 21.3345 404031 -44455.5 813321 -365917 169453 -186909 
257 1 24.2247 23.3053 10.6307 35.0318 -91094.8 945376 1.14258e+06 241931 -101035 -41327.9 
196 1 24.2221 25.1497 8.73934 8.91582 275672 1.22333e+06 1.65653e+06 156645 182639 -195530 
262 1 26.5977 24.5619 8.2955 0.432029 -415901 -219967 394399 -751974 124179 -9321.76 
263 1 26.5183 22.7379 10.2508 15.5861 -84372.2 -120260 696839 -38858.7 67647 -152002 
268 1 28.3917 24.3469 10.2987 0.241589 -589497 -335301 395929 -296609 227551 15956.9 
258 1 26.0076 25.0935 10.7039 5.52872 -46252.4 -118127 568984 -126918 -88598 17603.2 
267 1 29.0351 21.9701 9.78879 15.6075 266829 -174196 163943 -524258 -331954 -124997 
272 1 30.7079 23.6673 9.67668 5.93753 -472720 -205093 712544 -257330 -71946.1 77427.9 
271 1 32.4664 21.9321 9.49373 15.9126 657477 326206 757646 111146 -252910 237093 
333 1 30.8324 21.8815 11.497 14.2039 1.12212e+06 750707 654143 -15334.8 -88208.4 155027 
3012 1 34.2378 23.7447 9.49592 0.596016 -209150 -314765 -2117.54 71350.6 112910 309692 
3081 1 34.071 21.8252 11.3768 14.9563 1.06688e+06 380456 1.24674e+06 310493 -211987 -4502.85 
3011 1 36.0406 21.8938 9.56642 16.4372 870937 280636 1.38254e+06 -548833 -172585 -6160.89 
334 1 32.649 23.785 11.4977 5.10815 218326 -1.23997e+06 547849 -42087.7 229011 -22408.5 
3082 1 35.8884 23.6272 11.5073 0.85166 593828 -656387 11214.7 -616.083 48658.4 180643 
212 1 24.3293 28.6583 9.11819 8.6256 -279068 333038 203536 281192 -392682 679932 
273 1 24.177 26.9016 10.7945 18.8953 809309 1.15365e+06 1.22783e+06 -87393.7 146720 732529 
211 1 26.0173 26.9857 8.94335 4.96568 -459511 -153010 922759 171970 115632 -63285.2 
281 1 28.3888 26.1694 8.42096 0.25439 -88752.9 288393 791982 -400598 30403.5 23160.4 
277 1 27.7307 26.8324 10.821 4.82843 -325834 -68665.9 599707 -395092 59343.6 104524 
274 1 25.9986 28.6584 11.0411 0.187535 -280127 -134184 180060 159921 -368707 31830.2 
216 1 27.7268 28.6931 9.01751 5.05144 274071 547494 1.00091e+06 -197119 -63496.1 93416.7 
282 1 30.1633 27.9936 8.48996 0.174572 -293411 -144156 -268110 -228550 -82507.4 -166168 
283 1 30.0865 26.1018 10.4045 0.486763 -32094.2 -370304 577527 -80671.9 -49455 -18327.9 
288 1 31.9115 27.939 10.3091 0.226091 -245828 22492 244788 42870.9 -211103 -76306.8 
278 1 29.5628 28.4536 10.8451 5.83551 -305419 -577598 352862 -102657 205465 -27614.6 
287 1 32.4926 25.4629 9.66763 6.24589 54871.6 237591 260630 168034 33167.4 194654 
3030 1 34.4002 27.1995 9.72151 5.61039 448852 114556 340417 -424133 85572.4 -355313 
3099 1 34.3058 25.4502 11.5529 5.73872 -661150 -743416 590368 -47832 141118 91732.9 
228 1 23.5348 31.1894 8.93385 16.0263 363462 1.16728e+06 779691 -225020 96829.7 376840 
289 1 24.329 30.4407 11.1483 8.13849 -228435 874429 695141 74365.2 29611.2 -198590 
227 1 26.0025 30.4512 9.29953 5.50337 -551678 -528008 576721 -759313 87632.2 411219 
232 1 27.6821 32.0509 9.35883 5.03531 231723 482748 749006 -523768 -340721 318319 
293 1 27.8555 30.2764 11.2838 0.866639 158857 -209441 227603 -310615 -176353 187968 
290 1 26.0536 32.1425 11.4037 5.55714 -474953 -12034 191974 -610246 -315189 -58205.1 
231 1 29.6832 30.3562 9.25483 5.95532 -39601.5 -346915 48656 -276561 -339434 -141010 
236 1 31.3521 32.1467 9.21869 5.47763 -758774 126640 645551 -394954 282769 219536 
301 1 31.9677 29.661 8.45954 0.235612 -559986 -455361 223451 -328705 -132567 290598 
297 1 31.3302 30.2441 10.9909 5.72314 -382743 -442357 188362 231676 -476545 -89954.4 
294 1 29.6736 32.0248 11.1116 0.526455 -9361.03 -220015 56070.2 217106 -117901 -13355 
302 1 33.6556 31.5048 8.55763 0.601622 106369 -724589 531983 38787.4 130342 -5320.82 
303 1 33.7885 29.6499 10.2795 0.376841 -163009 -416609 848748 -158205 -23074.4 268500 
3048 1 35.5982 31.2972 10.4502 0.0913162 195556 -614338 803363 -183731 231318 -362977 
298 1 33.1835 31.974 11.0818 5.39118 161220 7024.43 485114 -27730.8 154275 -194963 
3047 1 36.1004 28.9151 9.83298 5.37951 -630274 -1.02396e+06 220858 -267258 212007 152923 
305 1 23.6108 32.9569 11.0522 16.0891 121711 688224 921640 -525844 127682 167833 
244 1 23.5509 34.7019 9.16881 18.1264 440844 1.14683e+06 1.52267e+06 -11982.6 -58114.6 144996 
243 1 25.296 32.9512 9.10053 4.67208 -842073 87416.9 669873 -348603 245197 -187578 
306 1 25.3388 34.5979 11.0974 4.98926 -477877 -456287 -272950 -675597 177084 -89661.3 
309 1 27.8364 33.7963 11.3599 5.24971 197861 -52584.4 437538 -418380 -123512 229721 
248 1 27.014 34.5873 9.10559 5.30054 44615 -129120 421897 -149184 40917.8 -109133 
310 1 29.684 35.4781 11.534 5.78622 148041 -258752 157249 -897.797 -94285.5 138434 
247 1 29.6118 33.9322 9.4971 6.62353 457415 -244821 597917 -216214 -144410 353015 
252 1 31.373 35.5254 9.516 5.22109 -453540 223090 364333 -214904 -539178 542548 
313 1 31.5073 33.7813 11.3726 0.636133 -279168 -805551 -46953.3 -90976.1 -138074 456781 
251 1 33.1784 33.7815 9.19478 5.25596 278354 -235512 1.18211e+06 -28419.8 125793 -186829 
256 1 35.0703 35.5816 9.25581 4.93852 -115860 -84380.6 876304 189896 -289621 -227618 
3063 1 35.5764 33.2515 8.53083 0.737999 72317.7 92808.4 848106 -225549 -80642.9 -116599 
317 1 35.0657 33.6045 11.0764 5.8918 -377020 -164860 834114 189525 -21189.2 -226021 
314 1 33.318 35.3568 11.2975 0.231883 -523101 -757941 719352 -85904.9 -184674 268185 
321 1 24.2929 23.7416 14.6752 22.9915 691836 779084 1.05885e+06 -307265 249348 -217733 
260 1 24.0958 25.0985 12.5349 19.8952 437350 442310 1.46193e+06 336449 96353.1 275116 
259 1 25.7123 23.3614 12.6206 13.2999 620283 408136 1.0727e+06 332996 -162318 210271 
325 1 27.4712 22.7704 14.4276 17.4509 1.84572e+06 1.23869e+06 1.47612e+06 196185 74397.3 -9406.87 
329 1 28.3494 22.5304 12.0517 15.6948 1.03156e+06 403454 95475.2 -318957 -74381.5 95637.4 
264 1 27.7074 25.0176 12.6173 4.80628 -47372.4 671432 406564 106498 212446 -124687 
322 1 26.3353 25.003 14.7214 3.43898 -440195 -561229 741735 -812108 132984 -40439.2 
326 1 29.4754 24.8415 14.5937 5.19082 892526 200409 183288 528374 116451 568366 
330 1 30.1153 24.3215 12.1688 0.274217 61983.5 -554558 186476 -229954 -105870 168878 
331 1 30.0587 22.4397 13.8818 17.3569 738677 295511 368443 -238094 -244590 96136 
336 1 31.9371 24.1072 13.9647 0.294694 125782 -737179 518146 -55837.6 17655.5 145580 
335 1 32.5283 21.8195 13.3697 14.7832 643575 -121337 401930 -71846.6 72704.3 -208285 
3083 1 35.9243 21.7843 13.1793 15.1814 1.04038e+06 -131500 1.01005e+06 372529 183468 -81612.7 
3084 1 34.3216 23.5402 13.4866 4.94105 -1.14558e+06 -932825 353166 185218 50176.1 -48117.8 
3101 1 36.1197 25.1858 13.4157 5.65778 -795917 -968912 -187162 -319579 247355 -421403 
276 1 24.2758 28.4376 13.0793 16.6674 33070 1.13268e+06 1.68594e+06 64031 -71193.4 -26770.8 
337 1 24.323 26.4068 14.7421 11.73 319066 1.45143e+06 1.51064e+06 77203.2 176829 221513 
275 1 25.9775 26.749 12.8012 0.398116 -293669 126915 1.23615e+06 332605 306780 47233.2 
280 1 27.7369 28.4532 12.9139 0.391657 317386 -602256 253533 102327 -288168 256113 
341 1 27.927 26.7302 14.7403 0.668967 -449470 -737431 522178 -514075 323613 137501 
338 1 25.9557 28.2938 15.0165 0.903567 -284655 227406 656448 306137 -272883 310550 
345 1 31.4006 26.5277 14.6131 5.90857 175152 255229 694828 14031.3 82305.6 -8016.65 
279 1 29.5711 26.5977 12.8185 6.16942 -275261 -452945 112273 -285967 350703 -203883 