ITEM: TIMESTEP
6800000
ITEM: NUMBER OF ATOMS
5780
ITEM: BOX BOUNDS pp pp pp
1.8341286641958732e+00 7.0465871335819685e+01
1.8341286641958732e+00 7.0465871335819685e+01
-1.8469580082021992e+00 7.4146958008217737e+01
ITEM: ATOMS id type x y z c_csym c_2[1] c_2[2] c_2[3] c_2[4] c_2[5] c_2[6] 
3 1 23.7638 22.1196 0.177012 16.5801 1.19951e+06 394106 1.95476e+06 -109615 -91930.3 -276395 
4 1 22.0428 23.8849 -0.0908663 15.052 201219 389154 1.15904e+06 -131671 26043.7 -346885 
66 1 23.6938 23.9744 1.90024 0.290718 243732 179177 359774 -347751 -104443 -129736 
65 1 21.8352 22.3428 1.90596 34.6747 1.07002e+06 949223 1.70548e+06 60437.7 70256.7 53879 
7 1 27.1423 22.0638 0.208142 14.0545 847756 146405 1.3613e+06 -61600 176046 -378972 
8 1 25.4795 23.8683 0.0155572 0.254929 568966 147711 1.22357e+06 62402.4 -55235.8 -75161.6 
70 1 27.2922 23.8655 1.90309 0.267642 40810.3 -197959 120669 -693238 207215 -336344 
11 1 30.8129 21.817 -0.0668788 18.6992 1.46951e+06 892388 1.90974e+06 -265024 177942 -45275.5 
12 1 28.9801 23.6676 -0.0887375 0.440117 350804 -326275 666984 -391281 18079 119837 
74 1 30.7996 23.6877 1.92758 0.232787 -241068 -505211 673227 217573 35397.1 204076 
73 1 29.1144 21.9405 1.78296 15.3403 1.10618e+06 503537 1.16981e+06 -427129 -184318 165309 
16 1 32.4697 23.6405 -0.112887 0.506681 -350880 -581866 898506 358904 136932 398659 
15 1 34.1636 21.9009 0.0124091 14.1909 1.16573e+06 333342 1.03147e+06 435096 351602 21866 
78 1 34.4511 23.5736 1.87543 0.588215 128065 -272191 529403 78644.3 293554 182648 
77 1 32.551 21.9435 1.89794 15.7909 860679 83762.2 501026 64337.4 329713 -319433 
2724 1 36.124 23.7558 -0.060072 0.510899 -103804 -708111 -198809 720999 177766 372194 
2721 1 36.0786 21.857 -1.74026 14.6881 870057 435704 1.16653e+06 157183 -276621 -202456 
19 1 23.6938 25.6808 -0.0850402 0.190975 -106010 88785.7 566398 -408523 338399 207687 
20 1 21.9531 27.5444 0.0477286 14.7625 155130 862536 661562 -213631 -210900 660552 
81 1 21.8751 25.6925 1.75302 15.9075 576947 1.24336e+06 1.33928e+06 52292.2 225294 104627 
82 1 23.6173 27.5099 1.90656 0.461121 -577561 296510 57414.9 -102341 89516 92543.6 
23 1 27.3889 25.5916 -0.0162891 0.486084 -193335 -73910.1 391993 -743056 208810 216939 
24 1 25.4247 27.4554 0.0770384 0.341184 221279 -447714 273596 -53788.8 49204.1 157177 
86 1 27.3042 27.3624 1.95242 0.23852 -417903 103090 20506.5 -375966 215915 294036 
85 1 25.4741 25.721 1.86372 0.261259 372396 -336531 -32171.6 -489751 -21034.5 -183139 
27 1 30.7755 25.3526 -0.0247454 0.390115 -112036 -90492.3 199748 389022 417187 135643 
28 1 29.0686 27.1991 0.0588003 0.22688 -299166 -564570 373704 -702347 61507.5 -62795.3 
89 1 29.1208 25.4392 1.87128 0.291286 -375615 -125075 -89707.2 -75767.5 114959 336076 
90 1 30.9442 27.2823 1.93056 0.347169 11429.6 -121074 621750 186969 66207 364434 
2742 1 36.133 27.2189 0.00172647 0.211713 159233 444488 816890 611765 101119 91714 
31 1 34.3305 25.2819 0.0176786 0.603925 -439830 -178485 530859 831869 89359.3 50512.7 
32 1 32.7217 27.1514 -0.100565 0.825632 59844.7 -90550.3 58768.7 216205 292891 -79002.2 
93 1 32.6388 25.4414 1.90833 0.145297 618770 736489 1.07713e+06 -23382.4 297596 154917 
94 1 34.4235 27.2499 1.92218 0.167434 465039 343253 889602 -389865 21266.1 -41931.8 
35 1 23.768 29.187 0.0566364 0.319548 -987102 -555304 527125 564246 99522.1 442691 
36 1 21.9718 30.7547 0.0262294 14.2491 -85163.5 1.00141e+06 1.10292e+06 421736 111921 69567.9 
39 1 27.3083 29.1117 0.0323992 0.0540881 91850 357982 226424 -372328 -138896 127138 
40 1 25.5251 31.0049 0.00147515 0.6007 202016 59349 851167 -337699 82459.1 -153477 
101 1 25.5125 29.129 1.9432 0.126189 180455 -41122 405966 -287144 -137664 -291152 
37 1 25.5203 29.2086 -1.7667 0.794466 -32532.9 59288.6 492651 -232168 49421.6 336180 
41 1 29.0903 29.0155 -1.82258 0.13076 -299968 -200236 110761 -100477 291911 263992 
43 1 30.9297 28.9471 0.0419489 0.331957 114915 533985 -175982 -62883.3 -25008.1 115893 
44 1 29.1304 30.8813 -0.00572066 0.432199 -125926 -240484 438174 -686860 72984.4 281763 
105 1 29.179 29.0066 1.82093 0.661303 -272676 -142038 677911 -335844 118899 163851 
42 1 30.8763 30.7913 -1.84663 0.0992266 -191757 -546015 -205828 -180091 56094.5 -272940 
47 1 34.3066 29.0892 -0.0105234 0.270915 -138560 -193014 -440888 16318.9 -50269.5 -109237 
48 1 32.6151 30.9124 0.0553155 0.406799 -957753 -419416 -724971 160825 24605.8 498331 
110 1 34.3345 30.7784 1.79442 0.677925 -622891 -900750 -118514 23330.4 -231682 191994 
109 1 32.5746 29.1024 1.84835 0.398153 -742928 -132468 279652 -400530 -180336 105678 
46 1 34.2222 30.8988 -1.73859 0.830836 -566272 -573915 136329 158175 241984 107185 
2829 1 36.0431 29.0792 1.92752 0.244936 -725624 -357033 689845 -264932 349477 147949 
2757 1 36.0446 29.1106 -1.82534 0.351312 80247.4 367102 310786 60840.4 62600.8 -78825.5 
51 1 23.6656 32.6324 0.0688164 0.210041 70503.3 -42695.3 697507 419459 -143103 82687.7 
52 1 21.9571 34.3551 -0.0664564 16.3396 275989 1.13311e+06 1.40024e+06 305595 143279 60336.3 
113 1 21.793 32.6459 1.94281 19.9 481513 1.43128e+06 1.66651e+06 -175932 31611.3 43732.8 
1357 1 25.4312 36.0328 1.74859 1.2845 255025 -68875.8 148817 215347 -36372.3 -234649 
55 1 27.2917 32.6277 0.0904666 0.123637 -1602.17 -40175.6 1.10018e+06 -524208 -80432.6 -16764.4 
56 1 25.5219 34.3906 0.0256495 0.312813 15370.8 -431534 89694.2 -156855 -68441.3 -340257 
54 1 27.2843 34.3503 -1.8224 0.106627 166926 5827.63 369982 -13213.1 170980 -114898 
1287 1 27.2726 36.0712 0.0357794 0.183078 -811749 -149106 -333996 -320107 35965.5 -219999 
1289 1 29.0067 36.149 -1.77163 0.141415 -412740 7556.36 158660 -285791 246691 -79559.7 
60 1 29.0515 34.3448 0.126991 0.246273 -209902 -237548 360059 129212 138899 -373029 
59 1 30.7617 32.5583 -0.0596265 0.832385 -770814 -745109 377721 -310492 3024.56 154375 
1361 1 28.9484 36.0755 1.8683 0.614299 -142271 -578995 22274.2 20696.1 -14789.1 -146665 
58 1 30.7881 34.4097 -1.72687 0.338217 187445 -199400 549044 -12738 -13009.2 153014 
4242 1 36.1263 36.1489 1.90221 0.114101 -944669 -973170 373960 109629 -27292.2 -70245.7 
2847 1 36.139 32.5363 1.93355 0.41516 108516 51403.1 244093 38633.7 -152985 -31379.6 
64 1 32.5964 34.3248 0.0544302 0.283986 -132577 -13118.9 197742 -33616.9 93413.9 -79522 
63 1 34.3703 32.6131 0.129984 0.308491 -675530 -820247 25173.6 -232653 -113854 148124 
1295 1 34.2624 36.1313 -0.0283551 0.375263 -408866 -445340 135262 38989.6 -158286 -432311 
2778 1 36.0336 34.4002 0.0748571 0.260066 -52348.4 -53065 456804 -84588.8 -225720 -197929 
61 1 32.5543 32.5943 -1.76992 0.287689 -752534 -872091 77487.7 63499.7 129777 99540.3 
67 1 23.7011 22.3513 3.88249 15.842 753862 377231 1.34021e+06 -346239 546787 -3538.44 
68 1 21.8472 24.0624 3.76794 17.488 642796 494436 583444 -14265.4 80166.6 271247 
129 1 22.0786 22.6936 5.70228 23.0902 -94522.4 306322 406654 -415225 268848 207018 
69 1 25.575 22.0453 2.06637 17.0757 812232 420443 357583 -312156 7585.33 -329288 
71 1 27.3175 21.9951 3.75928 16.6357 481319 744538 528262 -125234 -464285 92744.8 
72 1 25.5545 23.903 3.68388 0.616458 -101057 -404278 366780 -376298 420518 -108705 
133 1 25.7621 22.199 5.6357 13.5131 826115 163103 968943 -497602 239492 -49848.2 
134 1 27.4066 23.9207 5.747 0.454293 -727182 -1.21588e+06 982810 -296282 441725 -190614 
75 1 30.7542 21.8614 3.75627 17.6051 1.54861e+06 536042 1.43405e+06 -107702 79770.8 721.892 
76 1 29.0904 23.8001 3.80236 0.197679 137709 -197143 411867 -193789 267902 291921 
138 1 30.9287 23.5493 5.71498 0.715778 517547 -121593 712215 96286.6 -112171 66971 
137 1 28.8738 22.027 5.62759 13.7373 1.09176e+06 156455 1.02628e+06 322325 -39731.7 128448 
80 1 32.5968 23.5793 3.7165 0.461516 928210 379345 749490 -935.492 3199.08 -260283 
79 1 34.3926 21.7752 3.71363 17.9897 1.73091e+06 704373 1.93119e+06 7622.51 -186491 222016 
2865 1 36.1321 21.9132 5.71862 17.6484 1.29087e+06 139236 1.13041e+06 149373 117266 -87602.1 
2796 1 36.0998 23.6465 3.83858 0.239742 -173787 -418830 756944 243910 -242370 204329 
83 1 23.7801 25.6525 3.82787 0.29837 -135185 -8330.37 577889 -176224 236403 -218309 
84 1 21.9291 27.3743 3.74497 15.9195 148472 1.349e+06 1.41332e+06 -178131 193736 10755.2 
146 1 23.7109 27.2605 5.73111 0.344849 -22251.6 87096.5 1.01365e+06 -142162 106427 -82646.7 
87 1 27.3519 25.6206 3.73895 0.179228 -326152 -387846 299805 -132109 219095 130758 
88 1 25.5333 27.2988 3.68372 0.804502 124489 -130911 211523 -168779 302723 -76911.6 
149 1 25.7131 25.6715 5.69355 0.350145 -806613 -697113 544688 -743503 108839 -31010.6 
91 1 30.8472 25.4905 3.80787 0.176501 -263457 224643 584531 -327738 -52304.8 14139.8 
92 1 29.1226 27.2869 3.70595 0.400328 -108376 14576.9 735669 -272221 -7629.38 91570.2 
153 1 29.1796 25.51 5.71987 0.18603 -160024 307667 673666 -916819 161413 -308613 
95 1 34.4264 25.4933 3.88179 0.26305 55055.2 473689 847375 430892 48915.1 135969 
96 1 32.6468 27.2098 3.908 0.411078 -33229.5 -95907.6 394275 83432.9 -396442 309786 
157 1 32.5911 25.5 5.6447 0.384894 330574 219300 164552 -167039 32003.2 442211 
98 1 23.7137 30.9909 1.97844 0.360192 -329920 136067 706383 -728976 -352716 100946 
97 1 21.8982 29.291 2.05447 14.6814 273727 830282 904590 27039.8 -207272 159039 
99 1 23.6563 29.1079 3.88182 0.205894 24698.1 609605 582134 -487731 -301696 -186420 
100 1 21.8602 30.9724 3.91384 17.1006 539823 1.13308e+06 1.30468e+06 -378441 -52154.3 -473409 
102 1 27.3242 30.8111 2.01562 0.291428 615507 120552 711692 -670039 49537.2 196732 
103 1 27.3894 29.1621 3.83379 0.370555 718845 297836 494850 -109588 -386581 250837 
104 1 25.4462 30.8635 3.81607 0.26206 338373 68520.9 424102 -443400 -207672 74642.4 
106 1 30.8227 30.774 1.95463 0.270221 43338.6 109837 1.02451e+06 -31514 -127170 55283.2 
107 1 30.9172 29.0207 3.85364 0.287885 22891.8 368212 382362 -290455 -3998.64 94210.7 
108 1 29.1065 30.93 3.99948 0.598653 309706 -258008 304554 -322101 56758.4 592449 
169 1 29.1583 29.1132 5.64751 0.568259 -56882.1 -92352.2 157245 140863 -191010 373442 
2832 1 36.0331 30.9166 3.91764 0.865878 -11814.9 -377363 82634.7 330507 247955 -251369 
2901 1 36.0796 29.0268 5.69606 0.188023 293196 43896.7 393841 -186969 329649 258724 
111 1 34.3631 29.0635 3.72527 0.40984 10997.2 202273 546792 97654.9 206408 -43925.6 
112 1 32.6334 30.8288 3.84745 0.0942054 108171 -182451 681958 -175530 -106771 246318 
114 1 23.6185 34.2796 1.9929 0.540645 -576515 -384077 546070 355040 -172774 -281865 
115 1 23.5827 32.6812 3.95884 0.440847 -933493 -777836 -231226 -183626 120921 -408338 
116 1 21.9018 34.3762 3.92276 17.652 -327959 767385 1.2605e+06 201302 -88545.7 -129412 
178 1 23.7023 34.3082 5.70707 0.299163 -623686 -345992 -580953 344112 100388 -568738 
1355 1 23.6651 36.0518 3.79393 0.532751 -276478 -70270.6 738450 404787 -44161.3 -15206.5 
117 1 25.39 32.6462 2.09101 0.57348 -373086 -965996 88627.7 -507356 -249770 -357497 
118 1 27.198 34.3665 1.99157 0.132213 -552809 -289282 269796 -86133.9 116717 40108.1 
119 1 27.2025 32.5916 3.90783 0.139238 -831824 -338996 -385998 274196 117932 -194684 
120 1 25.4527 34.2937 3.81142 0.352006 -573691 -588286 -410847 123015 56514.8 -207451 
181 1 25.4413 32.6505 5.68792 0.316465 -770553 -657406 126936 -132745 146402 45319.1 
182 1 27.1745 34.2904 5.69716 0.526544 -429883 -492305 419904 -7075.25 -87937 -15627.3 
1359 1 27.1803 36.1488 3.83907 0.353654 8954.44 -390680 554853 134251 254404 -55383.5 
122 1 30.8705 34.4651 1.9793 0.360166 96768.7 443936 333134 228699 -105225 29597.1 
121 1 29.0087 32.5857 2.14039 0.838206 555223 255057 694408 -106003 -7763.09 72701.6 
1433 1 29.0847 36.0069 5.68144 0.679647 371021 -114127 222761 495133 -17480.1 114836 
123 1 30.8921 32.687 3.94639 0.227022 -18486.4 233059 719573 -281093 -85021.8 79283.9 
124 1 29.072 34.4178 3.84135 0.23878 542737 -6064.54 185605 80316.1 107574 -575025 
1363 1 30.9358 36.1103 3.85645 0.246224 -505223 -704306 241547 605392 244153 31703 
1437 1 32.7445 36.07 5.74011 0.41218 -411589 -292357 297698 -198458 52986.4 -412532 
1365 1 32.7315 36.1482 2.00605 0.565179 -716501 -559388 9027.92 -77099.9 81996.7 52643.4 
125 1 32.5862 32.6122 2.04078 0.335275 151831 130962 332800 -70707.4 70956 89753.8 
126 1 34.3611 34.3669 2.08889 0.536014 -326972 -504912 36526.9 147931 23203.4 -28698.3 
127 1 34.3615 32.5701 3.79815 0.272724 -715122 -497661 271431 213765 -211206 384402 
128 1 32.5749 34.4568 3.86664 0.383432 -845097 -989974 -212165 174551 90230.1 -187065 
190 1 34.4298 34.3132 5.74294 0.167203 -448409 -147715 899150 -69678.5 -82507.1 -7981.69 
2919 1 36.1488 32.5144 5.70771 0.252267 94223.4 -197092 324620 -61246.1 -217736 -383550 
2850 1 36.1498 34.3408 3.83107 0.0689071 -509348 -133705 -129627 61334.6 -357634 -242905 
130 1 23.9817 24.0479 5.75261 0.894081 -860022 -1.00261e+06 396277 -990315 13958.9 -68748.8 
131 1 23.9866 22.253 7.55986 13.5881 433998 270461 910120 -547341 134049 71998.2 
132 1 22.0999 23.935 7.85808 14.2326 506956 395109 771684 -88612.8 -198097 -158642 
135 1 27.3221 21.9644 7.61062 17.9924 1.14978e+06 488248 1.27214e+06 62208.8 4165.01 -121265 
136 1 25.7311 23.871 7.66557 0.241895 -460652 -382383 701381 -282024 -88545.1 -51721.4 
197 1 25.4841 21.9591 9.5312 15.6996 1.40448e+06 482050 963862 92984.9 50015.2 -26647.1 
139 1 30.9604 21.8722 7.60124 17.0546 1.09795e+06 158181 1.23678e+06 -180658 320898 100721 
140 1 29.2059 23.6303 7.76017 0.716398 304382 -203552 1.10156e+06 -523715 183113 -347094 
141 1 32.643 21.8466 5.81221 17.573 843951 34408.8 1.39917e+06 161288 256850 -270946 
2868 1 36.1134 23.6476 7.54209 0.390438 -53484 -474081 400898 14327.6 -97552.8 129560 
142 1 34.3605 23.6418 5.76085 0.215812 -62433.1 -108971 608155 -199363 123361 13741.3 
144 1 32.646 23.6255 7.57856 0.213392 -36841.7 -213972 633311 -60923.1 123217 -271853 
143 1 34.4376 21.8241 7.66399 19.0211 1.05217e+06 439157 1.09563e+06 -116892 186411 46189.4 
205 1 32.7299 21.7869 9.50749 18.2584 882931 261687 1.38131e+06 126612 170880 -125827 
145 1 21.9824 25.4881 5.79127 14.7985 276347 1.27032e+06 1.26371e+06 -20941.1 72730.7 -356710 
147 1 23.9471 25.5957 7.69829 0.188398 -304281 -200712 581554 -138276 69494.3 -50114 
148 1 22.0407 27.1702 7.73515 15.5092 396594 989128 916947 94707.7 72056.3 299367 
150 1 27.3594 27.3653 5.75465 0.233449 269262 216188 943059 -831248 188288 194433 
151 1 27.4833 25.6167 7.63117 0.307634 -18142.8 -198084 299241 -356637 -77172 -340428 
152 1 25.6708 27.2985 7.63953 0.274187 155843 18324.2 565863 -306656 143515 -141831 
214 1 27.4517 27.2688 9.53533 0.158743 -76169.3 -151876 563252 -426505 72797.9 -67148 
154 1 30.8246 27.3248 5.8438 0.623003 -484645 -371961 185885 -114250 260804 -121762 
155 1 30.878 25.3157 7.60921 0.530177 -211146 91178.7 652961 -447091 58745.3 -116258 
156 1 29.1805 27.355 7.63453 0.282221 -1.04533e+06 -500748 -121221 -1.0427e+06 206639 -178079 
218 1 30.7628 27.1849 9.51893 0.497525 -486861 -340260 171851 -361192 337331 64764.5 
217 1 29.2074 25.3727 9.52977 0.270409 -69265 -74078.6 221267 -633644 200666 -461581 
158 1 34.2567 27.344 5.77624 0.56661 -51092.1 -65359.6 331053 -217963 -285668 -246136 
159 1 34.3856 25.4762 7.57264 0.18061 316691 518171 435595 160826 452539 -245338 
160 1 32.5334 27.2208 7.65931 0.169006 121966 381011 306254 -41921.8 4549.46 -38469.9 
222 1 34.4467 27.2376 9.46001 0.477995 -154744 -347061 690522 -342298 -7649.47 -270396 
2883 1 36.0596 25.4294 5.79556 0.428883 -165367 182245 190433 -63642.5 41029.3 173592 
161 1 21.9721 28.9756 5.85358 15.9893 394368 1.44705e+06 1.8547e+06 167630 87282.7 -49307.5 
162 1 23.6254 30.8781 5.87666 0.268876 -179567 345733 773812 302404 16939.8 -83579 
163 1 23.7259 29.0415 7.80602 0.411953 121682 444976 974273 -56524.7 77727.2 -23699.7 
164 1 22.0394 30.8236 7.80589 16.4037 195402 888325 1.02268e+06 132386 223328 -116163 
166 1 27.2618 30.8589 5.78686 0.216758 331911 482579 569086 -114383 41523.1 57959.4 
165 1 25.3655 29.0749 5.76999 0.681487 871475 766239 1.29969e+06 -167071 -98530.7 116816 
167 1 27.4084 29.1255 7.73555 0.401362 269399 -194942 122058 -225078 155008 -303000 
168 1 25.4713 30.8441 7.7005 0.20465 280837 506133 538361 -5328.78 241358 -57911.1 
230 1 27.3978 30.7415 9.52508 0.528301 -232784 -605559 634133 -235380 89697.2 -380368 
170 1 30.9463 30.9184 5.8659 0.649626 -694528 -310748 -443299 -194864 -259847 -63047.1 
171 1 30.7576 29.062 7.66421 0.331882 -1.00242e+06 -842650 -330864 -618290 167249 13250.5 
172 1 29.1118 30.9048 7.55578 0.631485 -206619 -328009 212294 -219329 289866 10348.1 
233 1 29.2072 29.1145 9.52581 0.500711 -703896 -348524 89775.2 168287 65914.8 -294817 
2973 1 36.0326 28.9662 9.48912 0.408134 -461795 -312264 206336 -383462 71022.9 -157104 
173 1 32.5415 29.0905 5.77802 0.161749 -517640 -593769 364271 195356 -379984 -76487.5 
174 1 34.3031 30.8393 5.80593 0.186861 -374576 -16849.4 334202 -49826.2 134074 227512 
175 1 34.3018 29.0626 7.60483 0.147675 -75890.9 -211839 -204890 -43978.6 -231124 -48082.7 
176 1 32.5254 30.8382 7.66329 0.213018 -742324 -532753 -278208 370379 -648095 152110 
237 1 32.4719 29.0128 9.49263 0.504001 105936 130374 410536 -417679 -66134 -277835 
2904 1 36.1309 30.7481 7.65224 0.153887 214683 16000.2 637499 23192.8 -138210 -7363.09 
1427 1 23.7863 36.0856 7.59339 0.382916 -1.05347e+06 26430.1 516629 178840 273880 -182874 
177 1 21.9045 32.6076 5.86717 18.4978 81632.1 611604 932873 74763.2 183770 -350326 
180 1 22.1205 34.3745 7.60902 15.229 -269332 475081 1.13854e+06 -99955.8 321301 -336537 
179 1 23.7686 32.6368 7.73113 0.203901 -762022 -627047 664734 31381.4 368912 -85853.7 
1501 1 25.4518 36.0853 9.48135 0.456812 -80457 72964.7 758789 301728 -278095 -296586 
183 1 27.2305 32.6855 7.67006 0.372103 34324.3 220901 220529 120918 135807 -35741.1 
184 1 25.4262 34.3478 7.62225 0.416114 -331222 -531387 646921 400699 -45108.7 -364242 
246 1 27.2681 34.4529 9.50106 0.395487 -17438.8 -237701 514457 -190087 -156572 -394966 
185 1 28.956 32.6771 5.80239 0.443302 130348 -420812 55120.4 202689 36112.9 -267740 
186 1 30.8936 34.4449 5.87424 0.462849 -759384 -123775 154458 456858 178772 80996.2 
188 1 29.0904 34.4015 7.56642 0.450021 382550 202097 -197541 -142377 190532 -58352.4 
187 1 30.9132 32.6068 7.69017 0.307283 -623052 -1.01418e+06 28446.7 -125060 318247 -510376 
249 1 29.0409 32.5499 9.45441 0.708706 -22094.5 32237.8 978220 -420753 -153416 -142013 
250 1 30.7197 34.3104 9.52878 0.414056 237367 -19836 663447 -478224 23716.6 -221950 
1439 1 34.3783 36.1298 7.74054 0.275811 -479275 -641597 669018 368874 -384612 126484 
189 1 32.629 32.646 5.82651 0.142105 -628566 -504033 370743 -259321 30763.8 -8101.65 
2991 1 36.1234 32.5424 9.49161 0.154438 -49576.5 90653.8 171746 53446.1 -381439 -79570.4 
2922 1 36.0917 34.3738 7.66003 0.199206 -464338 -263636 358811 191934 -381593 158098 
191 1 34.3647 32.5288 7.77824 0.351843 -95534.4 117638 255704 -20495.5 -322039 -259232 
192 1 32.5775 34.328 7.72861 0.20052 -236265 -266936 142859 -296502 -394087 -237025 
194 1 23.9873 23.9409 9.61268 0.560215 -1.34238e+06 -1.55653e+06 49350.4 -1.26944e+06 90246.6 -154638 
193 1 22.5379 22.222 9.57645 24.3777 -127843 -880105 92845.4 -924344 -104040 -171024 
195 1 24.0188 22.0063 11.5347 14.6128 148835 189911 690719 28808.4 -120351 -55894.7 
196 1 22.3361 23.7722 11.4554 14.2796 -329421 -463116 92974.5 -228642 141595 16637.4 
257 1 22.1417 22.1786 13.2531 29.9573 332888 223427 640286 -298142 -143968 267008 
198 1 27.3743 23.6781 9.58784 0.22533 373600 303533 596776 -154052 305908 -331993 
199 1 27.3229 21.9275 11.5662 15.6121 1.06373e+06 -98187.8 1.00405e+06 324429 -212709 -281825 
200 1 25.7458 23.7531 11.4522 0.425459 -486983 -577903 332932 10074.1 -234515 41268.7 
262 1 27.4147 23.6737 13.2771 0.272024 -306647 -737725 -322521 -50583.2 -154770 -210633 
202 1 31.0165 23.5243 9.66018 0.587067 418839 8544.86 661148 172531 -162553 20615 
201 1 29.068 21.7658 9.57691 18.638 1.98253e+06 952793 1.96535e+06 100322 -36913.1 173804 
203 1 31.0016 21.7643 11.4665 18.1294 1.00389e+06 127834 850571 -66953.4 -104831 24043.1 
204 1 29.2632 23.6083 11.569 0.537688 -274762 -730000 335381 -177963 151178 115612 
266 1 31.07 23.5667 13.2794 0.591515 -390415 -613901 290054 323796 -290995 -34600.2 
265 1 29.1407 21.8031 13.2453 16.4221 1.20172e+06 466467 1.00757e+06 97319.2 -77773 383956 
206 1 34.4351 23.6103 9.60174 0.176642 327425 -81842.4 697238 37113.4 250645 38871.7 
208 1 32.7701 23.5329 11.4455 0.231955 -813307 -535251 -70309.8 169148 237325 92381.8 
207 1 34.4985 21.9132 11.4673 15.9195 319253 -436307 702772 231616 108924 -14154.3 
269 1 32.6613 21.8128 13.2854 16.9196 796310 -957.977 1.12345e+06 482667 -180182 172817 
210 1 23.8895 27.2643 9.69021 0.191334 -223842 -18478.1 420001 -382837 -38411.2 43479.6 
209 1 22.1076 25.6506 9.66445 15.4545 148444 577392 704323 -392441 -87996.6 -269.132 
211 1 23.9427 25.5546 11.532 0.127784 -460767 -508115 187846 -343713 -28348.9 -133098 
212 1 22.1721 27.3051 11.599 15.3747 -352038 612883 228862 -128675 -431501 -131496 
273 1 21.9959 25.4905 13.342 17.6977 678191 1.09876e+06 1.10762e+06 -62302 23405.1 267268 
213 1 25.7435 25.6312 9.69302 0.592558 -563173 -745682 500072 -506088 -3843.95 -59173.4 
215 1 27.5673 25.4064 11.4536 0.465451 -252462 -309580 -66966.3 -444837 -256651 -90363.9 
216 1 25.6902 27.3263 11.5266 0.192462 -406650 -417048 -201081 -412393 -579589 -438326 
278 1 27.4321 27.2261 13.2238 0.487155 -226659 -36711.4 311066 -518367 -229484 236883 
219 1 30.9297 25.3623 11.4795 0.190582 -101818 -295395 34491.2 -221793 327810 -143422 
220 1 29.2572 27.1808 11.4376 0.210627 -543941 -358958 182610 -547633 522868 -229617 
282 1 31.0746 27.0917 13.3485 0.655604 -16314.6 -207315 -53909.1 -146816 170904 116401 
281 1 29.2409 25.3668 13.3435 0.0822406 -390170 207168 -471221 -301161 -136824 -273885 
2958 1 36.1038 27.1784 11.5154 0.29495 -58330.5 -554871 976546 -296723 -208171 -84199.8 
2955 1 36.1075 25.4971 9.57098 0.29503 293634 479228 988988 434309 296875 -82158.5 
221 1 32.6121 25.4313 9.56161 0.165246 703945 686274 958851 -102543 171133 45691.2 
223 1 34.4456 25.3768 11.5101 0.126363 -309072 235386 612691 -181081 180258 -87150.5 
224 1 32.7103 27.1803 11.5176 0.397295 -98490.1 -331845 530810 -470846 363218 -214424 
225 1 21.8919 28.9801 9.59908 17.7377 1.07849e+06 1.80928e+06 1.55284e+06 56556.3 232479 8110.17 
226 1 23.9083 30.7942 9.63076 0.329498 -295113 392321 176438 438603 269523 -70432 
227 1 23.9091 29.0357 11.5055 0.2568 -446419 -336386 425525 -407230 -104064 102363 
228 1 22.0923 30.8455 11.3895 15.3168 216189 861205 1.19042e+06 -321812 177627 224542 
229 1 25.6821 29.0335 9.58114 0.164044 -310754 -134873 424160 -145082 222565 28211.2 
231 1 27.4229 29.0319 11.5206 0.216061 -619919 -847979 209446 -554792 -172949 202927 
232 1 25.6553 30.7258 11.5619 0.110255 -168896 -544693 162280 -40158 -255937 119530 
293 1 25.5859 29.0251 13.3487 0.136099 -103248 -704629 -479656 -98737.1 -110850 28995.8 
234 1 30.8299 30.8848 9.77035 1.47942 -723785 -728618 258916 -189471 -350364 -364619 
235 1 30.8725 28.9475 11.4819 0.289846 -461617 -190795 -133361 -486658 3741.97 -18643.2 
236 1 29.0585 30.7612 11.5816 0.598625 -727979 -518537 146182 -219644 242966 -99866.8 
298 1 30.8979 30.7921 13.2948 0.223325 -90141.2 -309469 509047 367562 -155159 -19769.5 
297 1 29.1978 28.9185 13.323 0.254517 -180846 261066 -126559 -416990 -245392 126143 
238 1 34.279 30.6715 9.5922 0.4368 -295310 -249694 53249.5 266477 366339 90861.7 
2976 1 36.0948 30.8066 11.5068 0.245301 53219.7 -148527 650608 449129 -55505.4 245971 
239 1 34.3442 28.9056 11.3799 0.46531 -271472 -506602 183637 -155951 269842 262208 
240 1 32.6299 30.7798 11.3717 0.4306 -788841 -211581 -579854 -188845 -58885 369616 
301 1 32.6336 29.0209 13.2587 0.529996 -310486 -627703 510389 -60563.7 -122590 -264028 
3045 1 36.0589 29.0686 13.2936 0.433489 103870 -132660 140459 -151105 111888 -89453.9 
1569 1 22.0009 36.0753 13.3392 17.8366 65616.8 1.20067e+06 822270 17619 178044 -363645 
1499 1 23.6576 36.0681 11.5344 0.838409 -120026 -50522.8 100678 -98846.7 80603.6 -116221 
241 1 22.1367 32.5295 9.63135 15.722 -52151.2 304065 713408 -180804 185861 39501.9 
242 1 23.7803 34.2872 9.73883 0.782991 -319054 -13354.3 1.03916e+06 -372954 2743.05 -297943 
243 1 23.8523 32.4873 11.657 0.535844 -551888 24778 11749.8 -260091 156921 -116486 
244 1 21.9658 34.2644 11.5483 17.9207 303153 1.26409e+06 1.22326e+06 -218180 26471.3 -199782 
306 1 23.8346 34.344 13.324 0.461952 -314584 -192136 132680 -419026 49589.4 -120098 
245 1 25.6737 32.5791 9.7173 0.553166 571938 304131 1.01965e+06 -264542 232365 -108815 
247 1 27.4197 32.5715 11.6544 0.82129 -173102 -475595 713578 8700.38 -38357.3 -37074.9 
248 1 25.6167 34.3624 11.5676 0.415623 -86106.6 -289587 -166895 -417300 -47962.9 -657460 
1573 1 25.6043 36.0611 13.2871 0.847184 -95098.3 -1.03489e+06 230834 49536 199446 -331850 
251 1 30.8195 32.5869 11.484 0.294569 569167 244122 65232.5 -206338 266092 -224933 
252 1 28.8885 34.4558 11.4267 0.696918 -9036.39 116002 1.10321e+06 -554839 -119044 111717 
1509 1 32.4209 36.1166 9.56285 0.911942 209896 -100631 -269032 -33050.7 -413511 -74570.4 
317 1 32.5986 32.6754 13.3413 0.399949 286627 512175 148543 -80621.4 331469 -124881 
253 1 32.6467 32.5712 9.65152 0.306173 -264441 -309797 96491.2 -399463 96731 382339 
318 1 34.5293 34.3655 13.3282 0.367538 -68736.5 189880 460193 135604 -148578 -189477 
1511 1 34.4702 36.143 11.4148 0.186288 -451398 -516392 -65708.1 285289 456618 -179991 
254 1 34.338 34.332 9.56211 0.127479 -52732.2 -78008 207386 -402606 -83835.9 -181123 
255 1 34.3668 32.5077 11.5164 0.340551 3750.68 49839 492155 136186 -155088 66103.4 
256 1 32.6041 34.43 11.4938 0.255941 838632 416893 729514 -170641 164817 71364.8 
4404 1 36.1217 36.109 9.55982 0.117856 -707283 -426598 -366713 -208641 -110365 121415 
322 1 23.9713 23.8176 17.1091 0.743457 -920024 -726167 505270 -427026 177894 51213.7 
258 1 23.8921 23.7783 13.4564 0.387634 -584530 -399711 272959 -581495 -599857 -26207.4 
259 1 23.6209 22.0303 15.2632 14.9744 670759 402536 930479 359503 146722 102599 
260 1 21.9416 23.787 15.1647 17.6142 603258 304253 875724 324621 175726 260037 
261 1 25.6057 21.9331 13.5202 14.6664 842323 441688 964978 -14035.9 -508624 -228878 
263 1 27.3962 21.879 15.1446 15.7112 516565 376798 816939 -403916 -382344 -22477.6 
264 1 25.6144 23.8104 15.2266 0.221624 -284752 -290796 -429074 -157631 -207452 299938 
325 1 25.6219 21.968 17.0354 15.8707 989910 -47776.8 1.31878e+06 -216463 62741.3 46509.3 
326 1 27.33 23.6759 17.0588 0.209028 -266111 -288935 183891 -295625 340963 284662 
267 1 30.8673 21.8325 15.2669 16.7113 1.25704e+06 326292 1.80814e+06 -44942.8 52549.7 -32734.9 
268 1 29.1264 23.5737 15.2603 0.188634 -84662.5 -739680 820440 -10311.6 19614.1 380621 
329 1 29.0262 21.9089 17.1299 15.8795 812790 17218.6 703515 196035 44237.9 90395.8 
3012 1 36.1416 23.6001 15.2355 0.512337 -1.00691e+06 -519162 -141702 360825 13422 212868 
270 1 34.5801 23.5179 13.394 0.505087 120408 -348136 166841 -121722 -449062 -248644 
272 1 32.6473 23.5193 15.3194 0.607772 794541 -189116 397919 -36582.9 -20673.5 4391.18 
271 1 34.4908 21.7257 15.2644 19.2438 1.4234e+06 536141 1.49293e+06 -120296 384794 58506.2 
333 1 32.8377 21.8086 17.0816 16.4787 1.32825e+06 288490 1.02409e+06 -197364 286365 266992 
274 1 23.7678 27.321 13.3724 0.292995 -431610 292790 -235919 -216261 -678943 24554.9 
275 1 23.8531 25.5697 15.2649 0.268541 -563630 -142673 381292 347815 -102333 14526 
276 1 22.0378 27.1707 15.3356 15.5896 -161071 990227 1.14001e+06 168363 -346358 34353.7 
277 1 25.7032 25.4778 13.4201 0.264707 -1594.89 -199325 158928 -362418 -218685 154546 
280 1 25.5856 27.2887 15.1714 0.300783 532999 -210224 409052 -307294 -197575 182165 
279 1 27.4901 25.3918 15.1853 0.435415 -353697 57886.2 423155 -401903 -240817 129276 
341 1 25.5895 25.6667 17.0634 0.731253 -228664 -139605 346117 -909135 -184213 196532 
284 1 29.214 27.124 15.2629 0.164044 -238125 -426045 863045 -368707 -270614 103591 
283 1 30.8902 25.3572 15.1863 0.323375 -255201 -95097.3 171061 119184 -285948 55597.7 
346 1 30.9168 27.1466 17.0899 0.169063 -144287 206762 122822 -251422 91077.3 -93188.6 
286 1 34.3232 27.2505 13.4874 0.878339 -122481 -153738 -143714 -82259.6 -216983 -12980 
285 1 32.774 25.2971 13.3889 0.27922 -216261 -118401 609925 -220950 123943 -6151.01 
288 1 32.6551 27.1206 15.332 0.3019 -964327 4693.1 -397106 -418146 56603.5 24616.9 
287 1 34.521 25.4339 15.2598 0.363062 -605768 -349898 55658.1 -3656.53 -8803.85 -39775.4 
349 1 32.7055 25.2784 17.0481 0.5608 166421 -136204 242454 -504140 -7549.76 82156.4 
350 1 34.2955 27.2085 17.148 0.605759 -153977 -269874 -223548 151135 -127002 477543 
289 1 21.9962 29.0877 13.4105 18.3315 427608 1.15282e+06 1.50465e+06 -75511.6 -108133 -424739 
290 1 23.8138 30.7398 13.4812 0.261475 -718626 -626914 304785 169979 -93572.7 90293 
292 1 21.9052 30.8841 15.2404 17.6694 676323 1.27856e+06 1.09686e+06 -236626 74725.5 -21944.7 
291 1 23.751 28.9765 15.3434 0.299996 48785 -215681 -53153.5 -299278 -247171 -268390 
354 1 23.7822 30.6337 17.0961 0.653001 22410.9 -139472 68363.1 260633 148790 -98589.8 
294 1 27.381 30.758 13.433 0.121002 -526372 -308463 -472833 207137 125347 77713.8 
296 1 25.6143 30.6768 15.2645 0.219993 -353292 -328318 -358194 -819.153 -15014.9 501018 
295 1 27.4469 29.013 15.2968 0.291687 420876 145635 821935 -20854.8 70938 103557 
358 1 27.3622 30.7426 17.1472 0.123412 234614 71350.9 631825 -29312 -75570.4 -57669.9 
357 1 25.561 29.0153 17.114 0.152653 -184091 -166392 211535 370765 -70845 343640 
300 1 29.1499 30.832 15.2596 0.261959 164866 528872 584193 -31363.5 -357143 157146 
299 1 30.8031 28.9244 15.2088 0.37618 111717 -137746 773261 -567938 -326062 21690 
362 1 30.8053 30.7862 17.1045 0.397477 -300548 305357 460668 98255.2 120842 -70288.2 
3048 1 36.036 30.7454 15.1731 0.427369 -357068 -162742 101635 378787 62332.2 -116062 
304 1 32.5399 30.6799 15.2972 0.496826 191269 241741 537078 -162641 166739 50402.1 
303 1 34.3379 28.883 15.3418 0.595453 -106484 -455763 -155951 -286796 59000.9 -186472 
302 1 34.2863 30.7991 13.3774 0.300204 -142484 -167436 461104 -8167.44 -182922 84150.3 