ITEM: TIMESTEP
10400000
ITEM: NUMBER OF ATOMS
5780
ITEM: BOX BOUNDS pp pp pp
2.4456825179752109e+00 6.9854317482040329e+01
2.4456825179752109e+00 6.9854317482040329e+01
-3.2383525497348797e+00 7.5538352549750428e+01
ITEM: ATOMS id type x y z c_csym c_2[1] c_2[2] c_2[3] c_2[4] c_2[5] c_2[6] 
4 1 21.3863 23.823 -1.5968 14.5999 533224 515489 984402 -58274.1 -333876 -420389 
65 1 22.0443 21.9717 -0.00844882 41.9859 904833 370840 927012 -246785 146118 112097 
3 1 23.3591 22.227 -2.0817 14.2358 581179 -322893 885737 -604734 468067 558642 
66 1 23.3081 24.0111 -0.0403947 1.25413 -627295 -211613 670970 -1.12598e+06 148687 -249036 
69 1 24.9013 21.9491 0.20328 12.178 1.55635e+06 749907 1.57052e+06 -221462 123365 -172096 
8 1 25.0629 23.8425 -1.78587 0.590598 -91062.2 -20282.7 776768 -883870 339008 -128558 
7 1 26.681 21.897 -1.67631 14.6452 1.3564e+06 391180 1.73549e+06 -192676 40718.4 -196954 
70 1 26.7727 23.6185 0.204184 0.658459 44312.8 191567 404272 -53076.4 26619.6 -119958 
12 1 28.4696 23.6283 -1.81745 0.270409 213933 38302.8 38679.6 -355236 -79781.4 -81162.8 
73 1 28.5253 21.9239 0.107887 14.6763 694949 -80706.4 1.14239e+06 -79608.5 -24275 126518 
11 1 30.371 21.8491 -1.7394 16.4744 1.22738e+06 357999 907728 -291610 -166471 -252135 
74 1 30.1781 23.6732 0.00640669 0.645825 -506526 -705672 577242 -289981 -52411 -43679.4 
77 1 31.8608 21.9238 0.197869 14.2737 1.06976e+06 13737.7 1.09406e+06 193056 -495468 -89950.2 
16 1 32.0136 23.6748 -1.6675 0.812035 -608609 -1.03819e+06 630356 528012 199616 47262.5 
15 1 33.6253 21.9552 -1.8445 14.2336 1.29316e+06 -151062 1.52093e+06 305596 69251.3 -131878 
2793 1 35.5816 21.8859 0.0432736 14.1825 432818 -30869.3 911393 295774 -144951 99008.8 
78 1 33.8277 23.4897 0.134003 0.737692 -43494.1 -129607 656686 -28242.1 -310807 -330650 
2724 1 35.5287 23.5991 -1.81534 0.323844 687274 -116145 187022 -517277 74090.2 317302 
81 1 21.415 25.8313 -0.145667 11.5314 268459 934640 1.03577e+06 -335734 388693 4966.59 
20 1 21.3592 27.5022 -1.94534 13.3646 -890507 112209 4086.09 -296032 979620 482209 
19 1 23.0937 25.7479 -1.92649 0.957983 -967861 373076 -472259 68250.8 658462 155251 
82 1 23.2413 27.4274 0.208566 0.742353 -995047 -718967 -280834 -25209.3 -492858 -12939.2 
24 1 24.9671 27.4258 -1.76605 0.229432 288573 -283184 426582 -397775 126453 53541.1 
85 1 25.0077 25.6445 0.0542236 0.257316 -140944 -484089 195738 -789008 476471 -437627 
23 1 26.7684 25.5847 -1.72883 0.240724 -450363 339057 368153 -603663 -172536 -21038.4 
86 1 26.7926 27.3698 0.152142 0.230616 -165440 -421994 109128 -44074.3 -36096.4 185711 
28 1 28.5855 27.2295 -1.79188 0.246632 -181295 -390211 162680 -640339 -38526 297271 
89 1 28.4217 25.5184 0.0565691 0.3752 -148425 220306 222272 157597 -257890 157758 
27 1 30.2986 25.3814 -1.82535 0.199097 -245744 -501166 66491.7 145924 -317619 171829 
90 1 30.3231 27.196 0.135537 0.245546 -134233 -389967 117480 38013.4 -299459 171490 
32 1 32.0949 27.0876 -1.88018 0.446364 -429637 -262160 343633 611297 -486966 -161258 
93 1 31.9165 25.4042 0.141161 0.334054 -155942 -211102 60504.2 -4627.42 -110063 -501751 
2811 1 35.5221 25.2788 0.0342082 0.356815 -66017.3 512217 221183 -336775 55214.6 -240779 
31 1 33.7673 25.4642 -1.78195 0.568724 -811649 -344348 661433 113859 -400828 86784.5 
94 1 33.7655 27.1644 0.117512 0.225697 -278563 -269376 110798 450349 -51054.1 -209317 
2742 1 35.5168 27.1028 -1.85159 0.36459 -296814 -227243 738756 -129415 43964.9 -42065.9 
36 1 21.1845 30.8803 -1.54004 17.0568 263339 1.21238e+06 1.60159e+06 -431814 -186638 -55420.1 
97 1 21.3737 29.0115 0.294914 15.4971 -155603 781423 510739 126314 -67031.4 374203 
35 1 23.0742 29.1225 -1.62548 0.464322 61454.8 -149720 412109 -528508 40038.1 -377239 
98 1 23.0995 30.8377 0.163849 0.298611 105714 123197 268662 264743 -132258 218131 
40 1 24.8685 30.9419 -1.7153 0.321259 548738 484423 659429 -103348 68605.4 296602 
101 1 24.9982 29.1788 0.222174 0.343599 -343484 -336394 4396.75 -281241 90076.7 -67842.7 
39 1 26.7177 29.1107 -1.68364 0.205665 702.477 368019 38756 -516439 -45399.6 85799 
102 1 26.7691 30.9248 0.154543 0.275617 119919 -136262 -116471 -89652.8 160965 67151.8 
44 1 28.6371 30.815 -1.70029 0.272031 -96222.2 -591073 -479475 220651 -142250 460050 
105 1 28.548 29.1629 0.00609644 0.769858 -268738 -331540 -239119 -391231 -101940 367557 
109 1 32.1339 28.8662 -0.0293134 0.552371 -391470 -371204 351296 317232 -171221 207322 
43 1 30.3176 28.9444 -1.76025 0.254072 -309237 -155192 -65927.2 -31221.8 -335004 -155074 
106 1 30.4018 30.8049 0.0367071 0.308723 -582149 -120527 -2314.69 -242707 -340330 -53676.5 
48 1 32.2068 30.7556 -1.7197 0.31531 -170815 -205758 83811.2 81077.3 107234 317927 
2829 1 35.6801 28.838 0.15939 0.385566 -121958 218619 34769.7 -45841.1 -13163.8 175557 
47 1 33.8807 29.0067 -1.84024 0.210562 -221563 121082 479991 342336 220665 -70369 
110 1 33.9156 30.7376 0.0793069 0.155559 291360 165538 -1761.27 -230808 -146522 105615 
2760 1 35.6912 30.696 -1.77699 0.151584 -33457.2 126524 13278.8 -42244.3 -9489.43 -374473 
113 1 21.26 32.5636 0.340502 19.1032 268647 1.2357e+06 1.38294e+06 -209759 278138 -32584.1 
51 1 22.9174 32.5419 -1.5959 0.983023 -375854 -449916 209114 270647 -136081 237535 
52 1 21.3074 34.3247 -1.51665 17.5827 238654 1.07233e+06 1.22996e+06 469810 -51350.4 -4764.6 
114 1 23.052 34.2159 0.345013 0.530652 -820881 -486760 924196 646260 -41083.8 -26050.1 
1353 1 21.4499 35.968 0.486469 16.3582 405232 1.13642e+06 1.41888e+06 593219 49389.6 -239457 
56 1 24.9109 34.3464 -1.67191 0.371319 514585 -169631 -197636 358948 -479097 533784 
1283 1 23.1893 36.101 -1.4603 0.150583 -373859 -57222.9 35884.4 20206.7 -252309 -118218 
117 1 24.9472 32.7371 0.182154 1.07692 219994 -92400.5 313148 167890 76745.4 43081.3 
55 1 26.8272 32.5397 -1.71015 0.370407 157423 231455 241326 -110001 194102 324873 
118 1 26.8163 34.3006 0.265014 0.119913 -372511 257256 1.05391e+06 -365459 170737 -78923.6 
1287 1 26.8179 36.0781 -1.72038 0.637617 -755792 -483902 446845 1.06265e+06 -446243 13435.4 
60 1 28.4991 34.4661 -1.66693 0.886917 -303835 -465254 -56537.5 459939 -149029 306753 
1361 1 28.5337 36.0307 0.303493 0.555013 -544676 -703108 261406 -46510.9 22354 -253987 
1357 1 24.9485 35.9256 0.351307 0.397865 409003 360182 607495 540597 28450.6 -79296.8 
125 1 32.1034 32.6061 0.137376 0.408655 -723671 -236625 -56344.6 -308372 -77171.4 -29690 
121 1 28.699 32.6112 0.186523 0.322888 -73706.1 124239 241212 64036.5 -115357 -111364 
59 1 30.4134 32.6791 -1.68803 0.341556 -89590.3 154733 -240692 -503388 208140 236301 
122 1 30.4218 34.4002 0.1517 0.439891 -328476 -686201 -136292 -65635.5 26928.7 35798 
1365 1 32.3447 35.9282 0.196139 0.231369 -788161 -684158 98649 148757 -96061.4 138669 
64 1 32.2072 34.316 -1.77055 0.301149 -578047 -937054 -250196 80285.7 45005.2 58728.8 
1291 1 30.4711 36.0764 -1.61295 0.280308 -495239 -521716 -509906 174546 -163463 76232.8 
2847 1 35.7502 32.415 0.0763895 0.101611 -844338 -746913 302464 227315 -353809 -290368 
63 1 33.9102 32.5518 -1.66107 0.331179 -304976 -1.05592e+06 -731107 -31741.9 -291796 -295339 
126 1 34.0256 34.1289 0.103207 0.342033 -391486 -616229 -89353 317538 -41881.8 -546313 
2778 1 35.7758 34.2662 -1.78011 0.388224 -69594.4 -295875 -290546 -283829 -282100 -83930.1 
4242 1 35.946 35.8807 0.184747 0.334842 -945236 -544711 2216.78 351592 120876 -51336.3 
1295 1 34.0785 36.1028 -1.75864 0.685818 -513663 -839059 -4781.4 346263 35885.1 -274741 
129 1 21.3131 23.1939 4.1492 44.4691 442641 -83121 1.38588e+06 -364245 30673.5 241376 
68 1 21.4284 23.855 1.68381 16.7769 734750 1.11553e+06 1.80164e+06 -70884.6 164576 165263 
67 1 23.278 22.2271 2.1676 15.9036 481645 255961 1.14244e+06 -493022 -525096 -302905 
130 1 23.5272 23.9947 3.80742 5.33638 -1.49898e+06 -1.01918e+06 -798301 -1.05068e+06 459913 -83312.3 
133 1 25.0687 21.8874 3.83272 14.3813 1.0567e+06 721352 1.29293e+06 -203637 -291440 122370 
72 1 25.0899 23.8304 1.99438 0.59374 -383201 504608 -184906 -543225 609611 -104028 
71 1 26.7322 21.7112 1.92942 15.635 1.35575e+06 910994 1.09313e+06 -166126 -105943 267156 
134 1 26.5751 23.8934 3.9277 0.693382 -401656 66925 32806.3 464861 55091 195703 
137 1 28.1569 21.8906 4.00167 14.0534 1.17688e+06 641338 720873 141284 -126859 -83599.3 
76 1 28.3718 23.6904 2.08737 0.42046 355116 355695 803288 281296 -610060 23624.6 
75 1 29.9709 21.7918 2.21643 13.453 864107 530460 1.23134e+06 253107 -560993 -307542 
138 1 30.1181 23.7037 3.88496 0.27596 326354 333742 71116.8 -103591 -271899 -2490.99 
80 1 31.8638 23.5864 2.07976 0.464482 867637 -37927.5 112737 -57650.8 -135643 239071 
141 1 31.8715 21.8177 3.68235 15.173 804967 117854 811261 -39028.9 -557949 576734 
2796 1 35.399 23.4864 2.10939 1.03458 -527872 -773336 126246 -110068 -88061.3 41148.3 
79 1 33.7821 21.6366 1.98607 17.544 1.33283e+06 756375 1.48072e+06 -446499 -4494.16 75605 
142 1 33.6616 23.6444 3.82122 0.40012 -328802 -14991.1 113442 49618.7 -168955 6883.7 
2865 1 35.4732 21.7735 3.90162 15.3913 1.242e+06 177513 978601 -118282 -327574 66141.9 
145 1 21.5393 25.5136 3.71552 12.1164 -18438.2 -126773 761981 -245389 474124 331675 
84 1 21.3205 27.3495 2.04124 18.088 665624 983353 964008 -124163 -11627.6 792463 
83 1 23.2331 25.599 1.93171 0.449569 -185636 -272579 -271867 -502590 583195 35677.4 
146 1 23.2711 27.2437 3.82831 4.61389 -706938 -439000 262253 427385 275416 -735158 
149 1 25.0506 25.7091 3.99797 4.18425 -905730 -1.3259e+06 567051 372875 -191990 350232 
88 1 24.9448 27.2749 1.89298 1.01181 -1.13942e+06 -600787 -504997 -92564.6 -186350 -160233 
87 1 26.8154 25.649 2.03366 0.428891 -307181 -285340 373812 -230474 -79536.9 419045 
150 1 26.857 27.5079 3.97821 3.86382 -1.19657e+06 -662609 -295545 1.15201e+06 -16101.3 259487 
153 1 28.4069 25.692 3.9453 0.485341 -662953 -596749 2873.41 -247492 -354391 -141799 
92 1 28.5016 27.367 2.00968 0.146086 -1.24936e+06 -456866 88087.3 -781120 -365162 161533 
91 1 30.1688 25.4774 1.97057 0.133107 163753 8377.2 280232 -105767 123416 158309 
154 1 30.1647 27.2354 3.81417 0.380643 -961351 -859810 44578.3 -750324 -165469 327643 
96 1 32.0163 27.1434 1.96929 0.134232 -311331 -109173 -34241.9 201941 -150593 -203173 
157 1 31.947 25.415 3.90084 0.181054 -292391 219948 291540 76607.3 -477622 -38629.5 
2883 1 35.4378 25.3922 3.86169 0.214365 -213721 -217596 -214112 28014.8 -53786.3 -82788 
95 1 33.7345 25.3609 1.97373 0.0952817 130116 10183.6 491162 216388 -218808 328014 
158 1 33.7297 27.2172 3.90328 0.198681 -20393.2 110608 117446 42931.5 -368027 -44901.7 
2814 1 35.5137 27.1228 1.96744 0.139804 152204 71207.2 314972 310663 -72357.1 442667 
100 1 21.3601 30.6636 2.21787 17.0672 305659 1.64929e+06 1.55216e+06 354754 -325747 -190657 
161 1 21.4549 28.8439 4.26972 13.6712 -27918.9 565283 1.13646e+06 167978 -280787 -9433.9 
99 1 23.1893 29.038 2.00502 0.372458 -299397 -242637 -18067.4 420795 -138754 -438583 
162 1 23.1303 30.6907 3.96979 0.814762 -108129 -53956.7 682971 182215 -196096 -55939.2 
165 1 25.0993 29.0175 3.84296 4.17863 -976194 -283058 -154298 364162 500201 -200284 
104 1 24.9965 30.9132 1.99581 0.6932 -497535 -601604 330137 397844 182116 -510194 
103 1 26.715 29.1639 2.05747 0.545457 -433591 -39888.7 -338067 118759 177372 126950 
166 1 26.8442 30.7114 4.05823 3.30515 -1.24173e+06 -645890 286909 90966.4 400990 -230973 
108 1 28.6202 30.7324 1.9819 0.449615 -262457 -864589 -93390.7 296192 -50624 -128089 
185 1 28.625 32.2986 3.93692 4.89702 -1.66632e+06 -768519 668887 905320 -90963.7 -467252 
169 1 28.6413 29.1851 3.92052 4.09097 -708779 -539602 7204.15 345093 70191.5 255750 
181 1 25.0205 32.3519 4.06324 0.332702 -138708 -339386 208330 453231 87078.7 109611 
173 1 31.8971 28.9663 3.81269 0.546974 135629 -120000 312013 149890 -396503 248460 
107 1 30.2698 28.9253 1.96343 0.400689 -1.00273e+06 -692318 134632 -291717 -307306 110220 
170 1 30.4094 30.8988 3.9511 4.64246 -1.55327e+06 -854211 628548 788900 -418389 506335 
112 1 32.0478 30.6555 1.92188 0.51147 99717.5 346501 716720 187533 -142561 320423 
2901 1 35.5923 28.9124 3.94559 0.281004 162125 -133337 678262 258520 -227492 67160.1 
111 1 33.87 28.9521 1.93429 0.193565 154583 -13620.7 598146 328734 42500.3 -106209 
2832 1 35.7127 30.6519 2.03888 0.203095 -592680 -152532 173788 -324566 -73621.5 -22047.5 
174 1 33.852 30.7317 3.84573 0.264152 543834 359314 675571 273141 -25702.1 62539.4 
2919 1 35.7691 32.3665 3.96572 0.446151 -221408 -282146 558949 352628 49012.1 -104253 
177 1 21.5023 32.4172 4.30598 17.1357 156824 1.01235e+06 1.31576e+06 462725 -96993.9 -139496 
115 1 23.2197 32.499 2.25267 0.309442 -370845 -73508.4 744876 333867 -79946.9 217280 
1355 1 23.3244 35.9284 2.32178 0.145857 -607099 -161435 823344 -493384 263778 120569 
116 1 21.4662 34.2987 2.45276 16.3911 354833 1.14216e+06 1.27929e+06 -129901 -17059.1 -189668 
178 1 23.4027 34.1532 4.20032 0.15644 -691031 -401194 105698 425097 330524 -341366 
1425 1 21.6669 35.8591 4.34561 16.3886 -50217 90591.4 347498 98641.8 -78324 -438351 
119 1 26.8795 32.4126 2.15376 0.381383 -530037 -418110 149973 88435.4 -252920 -413625 
120 1 25.0651 34.0987 2.24002 0.391317 295551 134578 364491 73667.9 243710 -20639 
1429 1 25.2233 35.8427 4.27265 0.14478 -13571.4 219883 331556 -168310 247213 191653 
182 1 26.9506 34.0095 4.13641 0.226137 -62810.2 -284282 478593 396862 87902.8 -480143 
1359 1 26.9006 35.984 2.31557 0.363484 16579.7 365179 534629 453989 188449 -177532 
189 1 32.157 32.5623 3.97875 4.24458 -1.23772e+06 -497438 346374 648478 -410707 548310 
124 1 28.6616 34.2726 2.13528 0.244141 -259908 -443597 160796 199900 -119508 -152182 
123 1 30.3839 32.5224 2.02633 0.189258 -277486 -137364 -166807 152815 -30380.1 98300 
1433 1 28.7168 35.7685 4.15617 0.224268 -873760 -938241 83825.9 723037 86422.5 -159168 
186 1 30.4477 34.0883 4.06195 3.53381 -1.21759e+06 -917955 -171852 906055 380739 -653161 
1363 1 30.4592 35.888 2.20541 0.172603 -622292 -1.38569e+06 -248771 442732 20760.8 56947.2 
128 1 32.228 34.25 2.0858 0.233956 -299864 -725447 -377918 331604 -116137 -249521 
1437 1 32.3275 35.6735 4.05684 3.97497 -873230 -599262 -471248 557875 238496 -853277 
127 1 33.925 32.4405 1.98336 0.141671 274023 -271740 323586 14008 -21592 82987.7 
190 1 34.1068 34.1708 3.85024 4.45359 -1.3522e+06 -971780 -441093 546846 235845 528760 
2850 1 35.7696 34.0666 2.02193 0.191273 -1.183e+06 -771866 -195716 315486 67759.9 -8618.21 
4323 1 35.8128 35.9054 3.9974 3.70898 -1.58624e+06 -880622 -823331 635836 -737265 360451 
1367 1 34.1615 35.8417 2.10816 0.277957 -205845 -954495 -647941 264586 -195082 365954 
131 1 23.1957 22.2208 5.62865 19.466 1.06004e+06 4804.35 1.76953e+06 -48172.9 12860.1 87112.1 
193 1 22.3278 23.0042 8.11964 23.4543 573988 834539 1.51007e+06 -369579 -217753 240205 
194 1 24.1431 24.5628 8.03962 4.42498 -841034 -443616 87196.3 105151 106241 262990 
132 1 22.4934 24.4981 6.08888 9.70955 367282 382249 1.15296e+06 -167771 107465 -379872 
197 1 24.7011 22.0257 7.65888 16.9977 1.17617e+06 869264 1.24911e+06 -312067 142168 28228.3 
136 1 25.0239 23.9286 5.76815 4.98526 -527949 -278027 -784436 -60037.9 -123893 285391 
135 1 26.5311 21.9842 5.93734 14.8898 691483 144540 806275 922.922 43560 -169030 
198 1 26.5022 23.8002 7.72815 6.31533 -69675.4 -214327 -38526.4 -25854.6 -398795 99961.5 
140 1 28.2835 23.7346 5.80593 0.129467 335796 834.555 621525 -9708.97 -336752 -430653 
201 1 28.1731 21.8729 7.80093 17.1001 353802 557102 388489 24549.9 -132348 -235987 
139 1 29.9866 21.9019 5.67746 15.2551 862323 -34554.1 1.46234e+06 -361358 -534594 9764.45 
202 1 30.0301 23.5956 7.60974 0.0997922 -85613.9 -130637 334846 35895.1 -37385.8 -87947.1 
144 1 31.7663 23.4954 5.76461 0.610343 -615372 -470895 50848.8 -219579 -641083 -259710 
205 1 31.7599 21.6534 7.55664 19.2696 1.55099e+06 691456 1.24342e+06 -24112.9 -111150 132943 
2868 1 35.3596 23.574 5.6597 0.229466 -81526.5 -408288 -371574 -190036 25748 -301006 
143 1 33.5266 21.7183 5.66584 17.0634 1.16171e+06 402307 1.15956e+06 186544 -115482 -354248 
206 1 33.5562 23.5011 7.38905 0.544526 -281111 -240075 -72741.8 329298 -428873 -269651 
2937 1 35.4326 21.6912 7.35293 15.8478 1.45351e+06 383372 1.32578e+06 -58647.3 -215805 27195.3 
147 1 24.1812 26.3164 6.31101 8.21962 747396 -22080.3 595605 -408225 141077 9589.86 
148 1 21.5913 26.9779 5.82267 15.156 789002 693256 711800 -298701 129990 184964 
209 1 22.3217 26.0954 8.16223 10.3962 141849 1.08273e+06 777493 523240 46116.2 -197814 
210 1 24.2126 27.9899 8.17108 5.41637 201407 323285 538212 168694 306584 -87024.3 
151 1 26.7072 25.7157 5.94383 4.80255 -565430 -300493 -420675 -451440 -153239 -49150 
152 1 25.9307 28.1565 6.12887 5.67277 608284 284670 883256 -28405.4 291892 -159192 
213 1 25.9983 26.2933 8.15433 4.8011 177422 541840 11142.1 153780 299203 -605257 
214 1 27.9019 27.9558 8.37192 6.49679 -120828 119393 892879 -741681 99067.3 -258662 
217 1 28.4371 25.4301 7.67662 5.95087 -227690 51009.4 105262 155589 -324887 70731.8 
156 1 28.456 27.3479 5.79396 5.60185 -323299 -456336 259443 -471135 -464122 -199648 
155 1 30.152 25.4893 5.78334 0.145322 -55058.3 379675 98132.4 86966.7 -354553 23020 
218 1 30.2339 27.223 7.73614 5.14255 -328247 177266 -142817 -66846.1 -303260 35761.7 
160 1 31.8953 27.322 5.78986 0.55839 -656570 -483660 294467 -233598 -160338 -68665.7 
221 1 31.8777 25.2501 7.52388 0.434454 -763246 -84292.8 -379201 169433 -556756 -401037 
2955 1 35.4795 25.213 7.46883 0.401128 41023.7 -401259 -429256 -34821 -9670.42 -106620 
2886 1 35.4443 27.0935 5.73492 0.0909317 362828 229931 63434.2 105149 -222947 -44473.9 
159 1 33.5639 25.3665 5.67468 0.300778 -122577 78953.8 -467645 57626.8 -241400 96739.2 
222 1 33.6048 27.1465 7.56712 0.24735 -6533.71 645443 -33295.2 -55546.2 -382373 192096 
225 1 21.7642 28.6676 7.63193 12.2355 88674.6 387776 -25356.8 -371195 17323 305229 
163 1 23.4202 28.7193 5.74655 5.94275 -362569 320365 -137795 -554978 -47961.5 -494651 
164 1 21.4066 30.5171 6.04069 19.887 967290 810976 871078 -59624.8 -95855.5 -79079.1 
226 1 23.4712 30.4103 7.68496 5.71009 -149094 2237.99 676055 -421412 442717 134901 
241 1 21.7416 32.2348 7.93163 16.7672 347832 1.17961e+06 1.13143e+06 -70968 237644 -165104 
179 1 23.3549 32.2453 6.00604 0.209608 -146181 285074 -60062.7 346277 197324 125846 
167 1 27.8021 29.7687 6.27385 5.53838 555916 549351 1.35502e+06 -429978 1376.1 -193647 
168 1 25.1374 30.5085 5.84514 5.78323 128218 -253385 172857 -134579 693637 -182380 
229 1 25.981 29.7362 8.28654 5.54878 964489 739804 1.45768e+06 -455391 -120855 -146971 
245 1 25.2227 32.1842 7.89821 5.51621 -37559.8 -268533 -160976 55816.8 436691 -103931 
183 1 26.9611 32.2725 6.11528 5.16896 516971 262440 556086 50394.4 310496 -364475 
230 1 27.833 31.4053 8.40676 5.47533 129712 -73582.7 594285 -318913 11116.9 196103 
237 1 31.9473 29.0579 7.66756 5.38661 -301974 -184429 -233315 37692.9 -347555 -120089 
171 1 30.2394 29.079 5.875 4.76934 -657809 -96718 297321 118486 -385568 76841.3 
172 1 29.5346 31.5137 6.43781 7.3144 400102 154701 1.10669e+06 -593706 -109702 -133391 
234 1 31.2675 31.407 8.26207 5.58417 830281 45331.1 190171 21919.5 85299.5 -179923 
233 1 29.5429 29.6495 8.2559 5.26791 -682135 -655767 424366 -526053 320742 -45956.2 
176 1 32.0147 30.7988 5.82805 5.61867 -1028.57 -419100 421894 -209628 -271159 368922 
2973 1 35.5317 28.8382 7.58722 0.234192 420319 -232680 5841.04 54363.1 -194666 449034 
175 1 33.639 28.9293 5.76482 0.381475 -522255 -457944 520597 -588523 92629.3 43402 
238 1 33.8489 30.8167 7.75584 6.00046 122091 77333.3 325685 -351084 -96173.8 345573 
2904 1 35.5035 30.5179 5.87134 1.15447 457290 68783.5 141285 -2685.48 -86561.9 174473 
180 1 21.7053 34.1534 6.11565 16.0702 -86792.5 63599 246846 -401230 81123.3 -346350 
1427 1 23.5003 35.7322 6.12262 0.213722 -503172 -238364 -43615.8 -211216 363039 -103304 
242 1 23.5731 33.9347 7.94765 0.0705774 -762320 -276989 207935 435538 387733 -1310.21 
1497 1 21.8183 35.6624 7.99176 16.5882 77416.5 609737 626013 -22206.8 313069 -428889 
184 1 25.2349 34.009 6.10142 0.0772776 -629006 -563589 274512 123778 325359 127115 
246 1 27.095 33.8745 8.00483 5.21378 -710521 -724479 -416357 152989 253744 -524899 
1431 1 27.022 35.6039 6.08925 0.490511 -503711 -131012 -751.99 -22077.2 14503.3 65177.3 
1501 1 25.447 35.6415 8.10105 0.514003 -174111 -198571 -170207 120425 35183.1 -140040 
188 1 28.8502 33.9433 5.93604 5.93041 44773.2 -139090 96657.9 -106686 251569 -45886.4 
1505 1 28.8887 35.5946 7.83408 6.28417 229209 -286420 412380 -72434 -8949.86 -35460.9 
1435 1 30.6746 35.6433 5.91862 5.93125 13472.7 -261217 -324142 -334738 206836 -395491 
187 1 31.3794 33.1695 6.4048 8.36239 524947 44527.9 1.13811e+06 -452800 122843 -127375 
249 1 29.4791 33.2054 8.34117 5.9814 -220954 -418518 348569 -168439 -138087 -348088 
250 1 31.3981 34.8631 8.31563 5.57356 335425 106442 540519 -93014.1 17430.4 -126747 
2991 1 35.6721 32.4301 7.69373 6.05666 -324545 -36185.6 130067 -457785 -54115.6 527538 
191 1 33.81 32.4993 5.75939 5.32908 -35552.8 -37585.1 287066 -341112 -331079 37606.7 
192 1 33.1887 34.8755 6.28184 6.04896 764582 -165064 1.08409e+06 -149424 -79867 307991 
253 1 33.3443 33.2316 8.23054 5.25282 463063 114828 718159 142171 -10249.9 -345025 
2922 1 35.6997 34.1497 5.86458 5.5147 153509 -288033 316661 -411316 -387463 264220 
254 1 35.1049 34.9514 8.29242 5.62376 413110 3042.64 596611 -192595 102761 -484419 
195 1 24.0185 22.9969 10.0227 10.3618 -105599 -27476.2 1.39395e+06 188571 -144764 157401 
257 1 22.6177 22.9728 12.1764 25.7574 773764 900937 1.62385e+06 -183672 86847.4 -135608 
258 1 24.3546 24.6414 12.1188 1.09396 -825191 -577990 667766 -301985 76600.6 93132.7 
196 1 22.3182 24.5568 10.1378 19.9625 -102480 -68071.7 1.21759e+06 505848 136806 -108134 
199 1 26.5512 22.0528 9.51334 13.4927 704345 -97052.6 343019 -378680 781917 126815 
200 1 25.9786 24.4158 10.1784 6.30171 -443704 -235301 529755 -417839 237593 -79722.6 
262 1 27.6228 24.2799 12.1129 5.0639 -438885 -189153 764890 -366405 291459 177990 
261 1 25.9084 22.6076 11.8971 9.81402 921575 97361.7 773166 -438858 273207 245129 
265 1 28.3363 21.8966 11.4322 14.1621 340497 127212 856718 -561546 -233969 62658.6 
204 1 28.3202 23.7355 9.54746 5.31773 -607401 -509416 284727 -333963 -348339 -6081.85 
203 1 29.9238 21.7681 9.49215 17.9639 848725 541164 1.11233e+06 -97514.4 -223820 70320.9 
266 1 29.9398 23.6757 11.388 5.94323 -271300 -544507 487036 -588398 -378025 387175 
208 1 31.8135 23.385 9.49143 0.643892 -135209 -385368 1.06983e+06 -256472 -372889 162766 
269 1 31.7253 21.7324 11.4182 16.2891 1.35649e+06 467217 1.323e+06 -331625 -62586.4 76942.4 
2940 1 35.3621 23.4384 9.18678 0.552271 466525 198220 822643 -259890 -18574.1 93267.8 
207 1 33.5944 21.7337 9.41733 16.5027 939721 28182.9 1.38561e+06 97959.3 -320522 -399168 
3009 1 35.3695 21.4858 11.1732 19.4371 1.23735e+06 922413 1.38489e+06 90286.1 -327803 -138543 
270 1 33.591 23.3495 11.2556 0.360262 184460 28346.7 -234009 -380041 -693948 -139546 
211 1 24.1757 26.1699 9.98899 0.582686 -75572.1 476230 924019 -142687 100989 106810 
212 1 22.4221 27.9437 9.86185 8.75285 -11553.3 200908 843240 138326 206534 -15562.5 
274 1 24.1902 27.9438 12.1402 0.373873 325998 459044 958821 -401759 124971 289791 
273 1 22.5404 26.1629 12.053 15.4108 -39253.2 1.15366e+06 1.7406e+06 154289 90616.3 -307825 
215 1 27.7358 26.1278 10.1492 5.53692 168557 50527.2 770921 -25178 288217 -6645.61 
216 1 25.9886 27.8665 10.1655 0.310403 456031 235277 691744 84962.2 77824 84472.3 
277 1 26.1035 26.2444 12.0545 0.486081 -11641.5 -424228 493259 -534175 448015 120341 
278 1 27.8967 27.942 12.105 0.396567 395627 145200 1.00725e+06 -95961.7 159668 -1435.31 
219 1 30.1906 25.3808 9.55732 5.7642 -23606.6 -61707.4 431403 -673565 -461312 368975 
220 1 29.6569 27.843 10.1681 5.88662 -21488.9 653308 606262 60712 -23549.1 -169771 
281 1 29.4115 26.0004 12.1735 5.78283 199643 -24501.6 1.10234e+06 -87182.3 180883 -55271 
224 1 31.914 27.0802 9.42611 6.67385 -1.13338e+06 179149 94471.3 -37747.6 -568353 152702 
285 1 31.7943 25.3774 11.4095 5.86683 -9430.19 -175518 148719 -321902 -455713 109435 
282 1 31.3207 27.6156 12.171 5.52434 516385 -36618.7 1.24131e+06 174315 266259 -89128 
3027 1 35.4118 25.2296 11.173 0.162855 460871 407655 700688 194134 -34451.2 370890 
2958 1 35.3312 26.9691 9.31422 0.652406 596398 864324 132363 166512 -203449 202444 
223 1 33.4353 25.1563 9.37151 1.09916 203688 -128299 593428 2892.14 -441806 -163157 
286 1 33.6113 27.0958 11.2254 5.70965 -69886.7 513457 716986 -240081 -280349 18829.6 
227 1 24.1508 29.6542 10.2376 6.24259 127444 94525.6 1.06238e+06 -262010 -299505 -85264 
228 1 21.8235 30.266 9.63651 14.0265 91196.7 373602 1.50893e+06 40906.9 70912.1 232142 
243 1 23.5708 32.0808 9.80202 5.69979 -269384 451555 745372 4863.48 206182 141838 
305 1 21.8414 32.0742 11.6661 14.3909 161342 1.13042e+06 1.68367e+06 -290129 161892 327078 
289 1 22.2939 29.6587 12.1991 11.9226 627323 989749 1.81872e+06 -196629 60906 -100484 
290 1 24.1995 31.2385 12.2036 5.31245 -168816 52659.8 462461 418675 100139 -13437.7 
231 1 27.8523 29.6095 10.2009 0.136896 565173 -63788.6 201044 -172915 246598 -55415.1 
232 1 25.9707 31.4039 10.2415 5.44507 424814 39504.1 780119 -45771.1 -70343.4 272795 
293 1 26.0121 29.6836 12.1076 0.249307 -101409 -115099 602673 164555 120010 15460.2 
294 1 27.8817 31.3006 12.174 0.171902 339628 263927 511534 -190200 215240 -76598.8 
235 1 31.3646 29.6685 10.1619 5.35878 -148066 771957 786459 438285 418918 -229317 
236 1 29.6229 31.3404 10.2443 0.108292 -637832 -231239 590394 -182431 169439 -76117.3 
297 1 29.7905 29.6121 12.1901 0.515196 314450 108953 1.00063e+06 -399035 340517 -140760 
298 1 31.5454 31.2461 12.1717 0.297668 -109714 -223806 446876 -179462 158012 -323925 
3045 1 35.5058 28.884 11.1527 5.04779 -286085 -843087 179088 95855.9 -219943 284036 
239 1 33.6255 29.0475 9.51218 6.58877 -111289 538429 509366 -47102.3 -321356 378631 
2976 1 35.6092 30.6801 9.45595 5.58271 -580720 -763496 -233490 18062.2 -506639 494112 
240 1 33.3363 31.4872 10.247 5.52127 -380221 17731.8 803190 -254083 130066 -579171 
302 1 35.0841 31.09 12.0607 5.12061 38940.5 50485.6 412741 -448693 478923 -439398 
301 1 33.2267 29.463 12.1308 5.33846 67199.5 169222 414818 51895.9 481122 -625534 
1499 1 23.6847 35.6074 9.92993 0.180354 -346972 75115.8 537227 -242538 84725 -395238 
244 1 21.8556 33.9363 9.82584 16.9871 400339 1.01445e+06 1.13779e+06 -97874.9 194359 40079.8 
306 1 23.6436 33.7271 11.8383 5.67319 164473 440264 985256 -347262 -108278 -64925.6 
1569 1 21.9135 35.6088 11.8412 17.2334 386746 1.30251e+06 1.33654e+06 -158184 21831.3 -479266 
1573 1 25.4278 35.4883 11.8012 5.42217 126946 -272491 -212385 141449 -166813 -368126 
247 1 27.8315 33.1334 10.3706 6.33569 160194 167629 660727 -46792.2 -126124 94356 
248 1 25.4504 33.7823 9.80961 6.69843 -154240 -575981 240381 -111075 183000 74577.9 
1503 1 27.2101 35.5476 9.80067 5.68064 168687 -271382 -260609 -201255 -523922 -71468.2 
309 1 26.077 33.0953 12.3493 6.5014 536564 -33906.6 59926.3 235591 -119053 -206727 
310 1 27.9439 34.9844 12.1533 6.39344 521320 23970.9 634678 -400450 -204498 -169714 
251 1 31.3818 32.9813 10.1518 0.864914 -98190.8 -62274 962375 160121 -50402 -184782 
252 1 29.7352 34.7736 10.2286 5.76833 287234 210902 554135 -54372.9 185751 -245608 
314 1 31.4948 34.902 12.1602 0.46798 467242 719905 581941 150654 197087 -242320 
313 1 29.7255 33.0568 12.2015 0.16948 643810 331597 320644 -161330 242228 -60000.4 
317 1 33.3203 33.1513 12.0682 0.821416 428186 127678 242581 -478077 222199 -258839 
318 1 35.1668 34.6768 12.064 0.126927 -364770 -426692 887070 -968725 26224.2 -199014 
255 1 35.1276 33.0043 10.1494 5.83796 -252436 -179666 744139 -711901 232315 -483395 
256 1 33.2181 34.7907 10.1675 0.44084 730830 262964 140143 24556.5 -3446.17 -31596 
321 1 23.0244 22.7532 15.7392 36.0183 503746 432039 865582 -58482 570051 459152 
259 1 24.4883 22.7886 13.9224 17.7152 -242457 -304085 385999 -979060 795362 91214.1 
322 1 24.4672 24.6883 16.0476 1.38016 -413213 -308873 928795 -190344 -50570.9 -156071 
260 1 22.6481 24.5475 14.1859 15.7464 640795 604534 1.07293e+06 -147850 -127493 139850 
326 1 27.8359 24.2939 16.0022 0.212607 125724 -296894 422524 23887.6 366338 -101259 
325 1 25.9198 22.7089 16.1401 11.2777 1.27683e+06 -179888 820023 -108555 149725 -585430 
263 1 27.5618 22.6696 14.0179 9.81861 1.11073e+06 7604.4 1.4078e+06 487911 -250953 311191 
264 1 26.0013 24.4842 14.0372 0.18941 -992291 -1.22426e+06 901483 -425119 141264 -44963.5 
330 1 31.3618 24.0894 15.7791 6.30653 175012 84105 833971 100740 -127320 223660 
267 1 29.9145 21.9114 13.2203 13.7362 488333 431216 673371 -276836 -452762 189285 
268 1 29.5961 24.3022 14.0939 5.92131 -445243 10471.3 497667 -238099 9531.39 46535.9 
272 1 31.7837 23.6025 13.1747 5.0738 -367467 -449181 83550.1 -372307 -276705 68095.6 
333 1 31.7356 21.7599 14.9427 15.045 800277 282902 1.12962e+06 -233363 -530029 103476 
329 1 29.3778 22.473 15.8837 11.1566 623196 125828 1.0203e+06 335167 372791 236290 
3081 1 35.3954 21.6231 14.766 11.5525 386076 401975 293434 -22782.7 -417697 80732 
3012 1 35.3175 23.4076 12.9545 0.245762 -747583 -700784 -69834.4 149162 -198848 312953 
271 1 33.6368 21.6647 13.1162 16.1133 639841 -30187.3 609573 -483642 -523577 10196.9 
334 1 33.5989 23.4875 14.8062 4.62575 -454856 -436635 -535855 -56858.7 -472662 269436 
3084 1 35.4102 23.6061 16.4194 1.18634 -692017 -388406 32694.3 -157170 -134386 -149787 
337 1 22.5743 26.2519 16.0742 18.2675 298069 745361 1.2087e+06 -180050 114878 -181330 
276 1 22.4624 27.877 14.1301 17.6439 81298.8 1.21369e+06 1.18419e+06 -10853.3 -53982.5 61079.6 
275 1 24.377 26.3405 14.0656 0.333334 -381247 -460283 646774 -194381 162382 126448 
338 1 24.2463 28.0019 15.998 0.939824 -782325 -174196 302711 27946 169674 214149 
279 1 27.8244 26.1152 14.1618 0.30587 31265.4 250907 695880 -207796 422322 -209471 
280 1 26.1186 27.943 14.003 0.401084 -350781 -458203 721782 -358144 114475 -166423 
342 1 28.0744 27.7819 16.0488 0.381695 -1.27398e+06 -1.02732e+06 -367718 -426139 417924 49526.1 
341 1 26.2041 26.3657 16.1285 1.29721 -906646 128665 114219 -1.01888e+06 439468 -312118 