ITEM: TIMESTEP
16800000
ITEM: NUMBER OF ATOMS
5780
ITEM: BOX BOUNDS pp pp pp
3.5061034768729225e+00 6.8793896523142607e+01
3.5061034768729225e+00 6.8793896523142607e+01
-5.8389394528100551e+00 7.8138939452825582e+01
ITEM: ATOMS id type x y z c_csym c_2[1] c_2[2] c_2[3] c_2[4] c_2[5] c_2[6] 
69 1 25.0838 21.3458 -4.18958 15.2855 365822 641267 914885 231471 -584525 16448.5 
65 1 21.5667 21.6421 -4.14269 41.0073 623070 406398 914686 -248668 264150 48025.1 
81 1 21.5411 24.8845 -3.94082 14.1858 475221 1.2802e+06 1.04429e+06 60611.6 -15750.1 -46497.2 
66 1 23.3897 23.1837 -4.20028 5.18901 -894230 -190223 818682 -335523 -54854.1 -493325 
73 1 27.4291 21.9607 -3.56774 10.384 469469 339535 424385 -284012 440977 189770 
70 1 25.5843 23.8502 -3.49912 5.58352 -624960 248711 458106 -239376 92755 -98074 
12 1 27.3432 23.7618 -5.30292 5.5813 -72681.8 -428524 -372763 -5993.71 158840 237842 
11 1 29.1071 21.9399 -5.39073 10.3947 295074 -36293.5 660614 -200719 127454 467048 
77 1 30.8247 21.8463 -3.52348 17.2168 617402 26595.2 777774 -190820 114084 247438 
74 1 29.2089 23.7398 -3.46896 0.183254 52903.5 -327509 221877 23841.6 409900 163544 
16 1 30.9961 23.5792 -5.35005 0.635137 -57804.1 -921485 -180281 75016 -91623 152926 
78 1 32.5149 23.5848 -3.33645 0.366341 -401038 -730389 336769 42643.6 -241601 36082.6 
15 1 32.625 21.8224 -5.37086 17.4081 -287017 -203735 218266 149677 288597 88997.3 
2793 1 34.2181 21.808 -3.4129 16.9909 1.30955e+06 536657 1.42159e+06 219595 -112561 -58058.9 
2724 1 34.2645 23.6261 -5.35469 0.501849 -67162.5 -336927 -103752 109272 -540855 -18181 
2723 1 36.039 21.8481 -5.27548 17.8177 889549 289471 666996 96202.4 -466611 -172280 
2794 1 36.0399 23.6188 -3.50411 0.402375 -243445 -321833 524751 836089 -154418 -116212 
20 1 21.5164 26.8443 -5.82477 16.1374 -414628 767148 958443 143394 4954.82 -376096 
82 1 22.0496 27.3911 -3.45437 9.17651 -83653.6 393026 545584 -252910 148839 -38731.3 
24 1 23.7851 27.5494 -5.32817 5.20737 -401104 -231861 -445911 -523820 359224 -357857 
85 1 23.9075 25.6939 -3.45601 5.57774 -265427 412857 225539 194870 71291.5 -231799 
89 1 27.4106 25.5353 -3.53783 0.32212 67291.3 -439373 -227779 -182317 149175 499535 
23 1 25.5902 25.6708 -5.30683 5.83488 -665196 305395 -165967 -340506 -7822.77 165486 
86 1 25.6715 27.4677 -3.34257 0.58756 -358305 -533402 88031.9 -29360.1 285164 -49353.8 
28 1 27.421 27.3059 -5.18392 0.343917 -28749 -557165 -146988 -268989 30176.9 166246 
93 1 31.0196 25.5173 -3.39459 0.317065 -534782 -146082 -243454 67425.8 329705 83319.8 
90 1 29.229 27.3268 -3.41808 0.0742661 -508931 -177492 -94997.3 -218955 -226196 171643 
27 1 29.2142 25.5169 -5.36183 0.3045 -150172 160183 -147867 -149877 -230510 266377 
32 1 30.9782 27.3034 -5.24253 0.135658 -235052 -106827 -43595.1 176684 -54552.5 187934 
94 1 32.6894 27.3463 -3.32626 0.217285 -676839 -48069.1 -222553 178892 162129 -156943 
31 1 32.635 25.508 -5.20462 0.275485 -449345 -61216.8 132389 236424 80443.8 -54372.3 
2811 1 34.3006 25.3586 -3.29931 0.40093 250664 400885 468465 235023 126040 168329 
2742 1 34.3597 27.3185 -5.15203 0.176859 125219 618039 781385 -86758.4 40981.2 -53156.9 
2812 1 36.1129 27.2631 -3.24887 0.186713 555104 602887 722025 203755 -244981 -157169 
36 1 21.4419 31.6503 -4.84484 23.8595 42902.5 484231 780680 69374.5 2978.38 -288902 
97 1 21.3615 29.7695 -2.98246 26.2806 564101 733278 1.22345e+06 -277597 16422.4 -439994 
101 1 23.8321 29.023 -3.43176 5.29347 72459.5 8217.28 372552 17454.5 81627.7 -465549 
35 1 21.8159 29.2517 -5.38516 10.8087 562172 -249665 198969 -141093 195889 -56496.2 
40 1 23.7637 30.9187 -5.28578 5.40931 -94935.4 425623 515968 92385.2 63079.1 -230292 
98 1 23.0482 31.4994 -2.88194 5.2956 249136 -1139.27 637079 -160318 -9280.14 287289 
105 1 27.4716 29.1345 -3.44741 0.287474 -287342 -118779 -49642 -394342 83633.2 -258226 
39 1 25.6773 29.2287 -5.25656 0.40027 113370 -36874.9 189186 -335670 104361 -296997 
102 1 25.5716 30.9781 -3.45664 6.17372 461509 315216 -152344 -283201 236660 -350828 
44 1 27.3682 31.0117 -5.20261 0.235259 72197.7 94157.5 344969 -251350 171516 278367 
43 1 29.1698 29.1428 -5.21378 0.0643298 -66388.6 131398 -294356 -148620 347190 181333 
109 1 30.9455 29.0429 -3.36684 0.2883 -341655 -515704 -11463 -189364 214347 -63721.3 
106 1 29.1659 30.975 -3.36882 0.19462 135040 271026 373307 -286247 56610.3 93869.1 
48 1 30.9406 30.9784 -5.22085 0.0922603 -709257 12355.8 220464 280701 36007.6 -228196 
2829 1 34.4667 29.2054 -3.31137 0.344993 -260850 51098.9 428170 151954 141829 -86335.6 
110 1 32.6895 30.888 -3.30029 0.180722 -574557 110557 -20159.3 249060 426945 -194815 
47 1 32.6744 29.2341 -5.25336 0.289971 151209 89757.6 250221 254678 8566.35 52981.7 
2760 1 34.5219 31.0509 -5.15713 0.288972 -349107 -412778 153611 -89902.3 -147105 -91874 
2759 1 36.1395 29.1277 -5.13623 0.163967 231012 555241 503228 -72341.5 219527 -249185 
51 1 23.227 33.3495 -4.69008 5.65631 -727111 342579 24726.2 268187 -62382.7 -292375 
1281 1 22.5412 35.6782 -4.18335 20.8915 320644 1.14207e+06 1.37676e+06 223155 141985 -260174 
117 1 24.8623 33.4028 -2.9306 0.521169 -864475 256330 131677 162545 -111333 -164185 
56 1 24.9604 35.4136 -4.67033 1.76751 -998016 -352702 213873 -562270 242572 357140 
121 1 27.3195 32.7236 -3.29516 5.46922 548522 -590810 104735 10187.1 67569.5 294013 
55 1 25.5094 32.7455 -5.27508 5.85118 -921920 295420 -215685 -259493 -92093.8 24631.2 
60 1 27.2749 34.4202 -5.05399 4.98526 44517.1 -66797 -32962.2 -114326 -171014 -371.992 
118 1 26.6772 35.1177 -2.75909 0.253631 359026 286828 -363138 16667.2 289610 -21071.2 
125 1 30.9727 32.7354 -3.30991 0.112322 152087 -597095 -172103 -242597 -48066.5 -184216 
59 1 29.2289 32.7642 -5.27862 0.484226 -52971.8 -275803 -7976.17 -66241 77954 222118 
122 1 29.1213 34.5505 -3.35254 6.53797 35168.6 630677 231726 -203315 32437.5 -111694 
64 1 30.959 34.5126 -5.09988 0.374838 -268396 -23791.6 370602 -204938 -29782.5 -26452.6 
63 1 32.7268 32.7505 -5.17728 0.0878866 -9956.44 -186674 390976 165052 80133.1 -207969 
2847 1 34.4477 32.7355 -3.28126 0.103826 -123243 -215333 -9188.66 340532 161255 -109748 
126 1 32.7241 34.4871 -3.27203 0.173725 -270980 -136382 52200.9 10932.1 144075 265748 
2778 1 34.59 34.4461 -5.16476 0.305031 -631626 -684903 36726.5 476549 -27496.6 232277 
67 1 23.3876 21.4648 -2.11827 17.7236 541704 -164539 1.23467e+06 -77349 -228545 -237017 
68 1 21.5901 23.1423 -2.2187 23.5394 -85442.2 109965 135862 52997 -301919 -74662.4 
133 1 24.0704 21.7699 0.178498 15.6235 705902 709022 469040 -589879 -170863 -116736 
130 1 22.0577 23.657 0.116764 12.3315 1.07672e+06 928346 542695 -185748 50422.6 373061 
72 1 23.8601 23.7639 -1.64919 6.32781 -703844 -223847 455358 -374083 -53618.3 -330406 
71 1 25.7843 21.9723 -1.68646 10.6666 181642 339971 467107 -143074 24998.3 -103264 
137 1 27.4221 21.913 0.106864 16.1397 652671 411731 540984 -212352 90993.8 41727.4 
134 1 25.5735 23.714 0.136037 0.59727 -18222.1 -602539 413051 181350 -64821.8 -64599.1 
76 1 27.5235 23.8113 -1.70681 0.635734 -46375.5 -332347 224568 -129956 259302 100449 
141 1 30.7665 21.9681 0.36355 15.6724 768412 43992.3 326967 156482 397097 102067 
75 1 29.1871 21.9501 -1.65551 15.6196 611034 50489.6 699508 -173844 273072 158285 
138 1 29.0441 23.7449 0.37743 0.323106 -490000 -307450 172679 101472 -24128.5 -49092.5 
80 1 30.8618 23.693 -1.44827 0.272897 -646002 -1.02236e+06 363113 66268 38511.1 307840 
79 1 32.4097 21.8406 -1.4746 15.6154 832362 40915.3 744234 308325 175117 57825.1 
142 1 32.6214 23.7131 0.362486 0.415682 28454.2 -358586 -274303 -60254.1 -116120 388875 
2865 1 34.1949 21.8072 0.36723 18.3922 1.23567e+06 331235 1.36378e+06 141235 10180.3 130611 
2796 1 34.2634 23.5899 -1.49943 0.16888 493148 203524 477883 4891.19 22080.4 331501 
2795 1 36.1107 21.7582 -1.59393 17.984 1.55901e+06 693363 1.79686e+06 -260112 -57914.1 41032.4 
2866 1 36.0358 23.5713 0.424262 0.296958 132298 145877 361306 12930.1 27192.4 306937 
84 1 21.5568 27.9148 -1.01562 23.9533 29138.4 638697 1.30194e+06 43989.3 112178 -499476 
145 1 21.5988 26.0567 0.919322 26.4379 234971 661767 700932 -73598.3 -269951 9635.77 
149 1 24.0053 25.5349 0.238698 5.45766 -119626 -624334 84504.6 254645 -54501.7 225317 
83 1 22.1561 25.5895 -1.56061 8.94773 -168766 -209070 665421 -43284.8 -16003.7 78740.7 
88 1 23.8822 27.2984 -1.49573 4.98357 -693991 -394824 6242.78 -260336 268800 89314.7 
146 1 23.2597 27.9208 0.89482 5.53263 -788862 38959.3 252566 95948.1 -132184 -89102.4 
153 1 27.3232 25.5262 0.220779 0.499149 -278538 -276876 -44756.4 -54371.7 -233241 290814 
87 1 25.6891 25.5891 -1.66756 0.292729 -413551 -33736 -213206 6351.59 -131714 135670 
150 1 25.599 27.3358 0.474157 5.32533 -424798 -40050.7 157162 10237.9 -45434.8 -76515.7 
92 1 27.4916 27.2748 -1.50371 0.457893 100803 146716 280861 -208649 -445586 388978 
157 1 30.7854 25.5779 0.429506 0.306306 -144806 -33003.8 143774 -156953 -350822 -143718 
91 1 29.2547 25.5327 -1.56855 0.372167 -530423 -701785 419677 -135664 5571.82 22331.5 
154 1 29.0281 27.2947 0.398852 0.384058 -938317 -441175 -344037 231303 -502418 21063 
96 1 30.9119 27.3153 -1.56865 0.256016 -322524 -540015 -41783.5 -253497 -177801 58927.3 
158 1 32.5382 27.2882 0.506831 0.454802 -276296 -437026 345523 -60328.1 -78671.1 -53756.2 
95 1 32.5918 25.4493 -1.49624 0.197584 -431108 -166578 185781 -87331 8220.64 219937 
2883 1 34.3693 25.5018 0.497149 0.391359 207058 -173530 225925 -221565 32666.9 -268.674 
2814 1 34.3025 27.249 -1.4407 0.337923 31392.1 133634 499038 375288 -187184 -153750 
2813 1 36.0833 25.3691 -1.37079 0.466488 -739081 -371880 229163 432118 -349443 61506.4 
99 1 23.1286 29.8084 -1.05274 5.68937 302610 363364 641616 -97294.5 216663 199803 
113 1 22.5407 32.1706 -0.340459 20.9295 438919 887619 1.20216e+06 -100605 -100567 116650 
104 1 24.968 31.5985 -1.13157 0.554208 497482 332813 349404 -188688 241420 -180082 
165 1 24.9293 29.8088 0.821727 0.39463 -474238 -329928 -22961.9 240566 -170995 -338222 
169 1 27.4633 29.1616 0.374716 5.15679 540398 -79244.9 327802 431833 77228.4 101929 
103 1 25.587 29.1033 -1.51785 5.51287 619618 267455 554735 -448412 24843.9 -566955 
108 1 27.3738 30.8533 -1.54777 5.38922 616.493 -84489.5 428656 -98440.1 235845 43466.9 
166 1 26.863 31.5632 0.85564 0.541976 241055 -354279 525227 17729.6 182377 -60633.8 
173 1 30.8479 29.0282 0.390737 0.266692 -203746 169952 400874 370016 -3526.5 25978.8 
170 1 29.2862 30.996 0.407273 5.22487 67944.8 -547888 97235.3 -171878 75832.4 747175 
107 1 29.2014 29.1635 -1.5626 0.258545 -237144 241500 394353 106519 36827.2 70542.3 
112 1 31.0315 30.8653 -1.57583 0.774833 -186703 171323 230432 -24724.4 501567 37174.7 
2901 1 34.3778 29.007 0.427439 0.144907 -21296.3 -241039 -67807.4 36498 -504010 214844 
174 1 32.6477 30.8624 0.532199 0.320795 191112 500231 368227 96991.3 312673 -86685.2 
111 1 32.7119 29.0416 -1.37051 0.350849 -633213 -693131 129752 234924 -257639 27048.4 
2832 1 34.3293 30.8983 -1.32117 0.522317 1980.66 -189968 515994 156906 -7070.49 -76169.1 
52 1 22.6132 33.8496 -2.29133 20.4579 -271091 688870 882520 249424 395009 -286189 
1283 1 24.2412 35.8024 -2.32422 5.82308 147264 540522 583618 8179.95 115212 -94156.5 
114 1 24.2548 33.9729 -0.372831 5.4777 -219842 -405258 311897 -143109 23599.3 -4176.95 
1357 1 26.032 35.6795 -0.427873 0.223466 403709 26359.4 198813 -66262.8 351222 -341282 
119 1 26.717 33.341 -0.957371 0.189543 406161 -292140 37697.7 -155022 244095 -7480.67 
124 1 28.6315 35.0307 -0.933945 0.550741 421433 -107290 398043 -176562 176929 -14679.9 
185 1 28.5059 33.41 0.988504 0.505311 119824 -621852 -234111 96752.5 430941 -196343 
189 1 30.9487 32.7464 0.39714 6.80031 -215732 -289427 202875 -370904 -162672 41578.1 
123 1 29.1661 32.6114 -1.31129 5.40914 288638 -238351 -65391.7 65897.6 -267186 264681 
128 1 30.9908 34.4186 -1.559 6.26425 -736767 -287235 -382420 288297 193309 -408748 
186 1 30.474 35.1319 0.907273 0.716202 -206221 -197607 271338 -136408 61893.4 -92115.5 
127 1 32.7403 32.734 -1.44287 0.176407 -499336 -599390 -178276 645410 -73081.6 -175747 
2919 1 34.3924 32.7396 0.469673 0.26447 110383 194488 204493 96926.3 -55934.1 -64531.6 
190 1 32.757 34.5593 0.248709 6.18156 -751792 -469277 122508 126359 410788 -143324 
2850 1 34.5756 34.5807 -1.42089 0.38746 -204013 270923 124401 83278.9 448482 89981.7 
129 1 21.5626 24.2956 2.64318 28.2287 -138641 -55692 -6300.58 -227721 -383761 650417 
193 1 21.6903 22.5869 4.25974 49.7444 -535461 -839166 258149 -131329 -123434 310548 
131 1 22.2304 21.946 1.87869 32.6591 526884 346251 675240 -47827.3 -39903.9 273857 
197 1 23.9358 21.9559 3.76683 13.1995 97071.8 -130735 1.09666e+06 -301540 85965 302926 
136 1 23.9305 23.7259 2.05593 5.46865 137743 -327535 556915 -524254 205644 286473 
194 1 23.1523 24.3824 4.47167 4.99491 -1.09597e+06 -1.16542e+06 -312915 -725961 -395888 248256 
135 1 25.7913 21.872 1.97997 15.2558 526795 70595.5 743935 -703746 -142917 66942.5 
201 1 27.1985 22.0274 4.0503 14.5598 37127.6 -702660 261522 -23696.7 111832 29310.1 
140 1 27.3135 23.6461 2.14725 0.291631 -816670 -1.23599e+06 127750 -593856 -80689 219024 
198 1 25.5372 23.7358 4.08445 5.23793 -760734 -968456 -84148.2 -139589 -226152 252783 
139 1 29.0549 21.8461 2.18477 18.6317 1.08316e+06 350160 1.16663e+06 25690.8 184200 16913.1 
202 1 28.8976 23.7115 4.01359 0.491545 -604577 -373638 140123 -177278 77855.3 120197 
205 1 30.699 22.0392 4.17512 14.2008 771455 78105.2 641645 199216 -228077 -368518 
144 1 30.7152 23.7243 2.21815 0.297322 -223029 -693843 230137 -144783 -105516 -140254 
143 1 32.5711 22.134 2.26179 14.0536 170685 -485740 481355 -339808 -45885.8 18177.3 
206 1 32.6634 23.6638 4.20078 0.724094 97891.4 -1.06414e+06 -620078 176330 -66944.3 143888 
2937 1 34.3638 21.8419 4.05915 15.6735 365971 -102576 509811 -214699 -26551.9 -63776.9 
2868 1 34.3278 23.7087 2.2411 0.289752 -533193 -162026 16572.9 -671201 -44533.8 371777 
2867 1 36.0314 21.6755 2.21557 19.0055 835524 712986 623384 -149709 -166425 44894.7 
2938 1 36.0358 23.5864 4.05763 0.121115 -93032.9 -10394.1 158092 -389231 109477 137026 
147 1 23.2456 26.0962 2.70787 5.63419 -630251 -166414 -217255 -442183 -483996 353349 
161 1 22.4357 28.5259 3.26242 25.4738 556533 1.12378e+06 1.26614e+06 -147952 111751 -50260.7 
152 1 24.8802 27.9526 2.71298 0.143486 -506966 -330975 -531093 -587178 -149640 -165752 
213 1 24.7948 26.2667 4.63305 0.667354 -1.16696e+06 -171902 291822 -35537.5 31885.8 85800.7 
151 1 25.6639 25.4624 2.18114 5.24446 -468931 70865.9 53203.2 3067.05 -526654 303635 
217 1 27.168 25.5728 4.07656 6.47494 -419719 -155514 87405.6 -52319.6 -103733 45026.7 
156 1 27.3952 27.3861 2.24318 4.59286 -298601 -456574 -12180.7 414098 173477 190998 
155 1 28.8768 25.5148 2.229 0.609853 -346358 -1.10296e+06 97744.4 -99255.4 144314 135218 
214 1 26.6503 27.9681 4.61931 0.164275 316799 -228112 906238 -229458 -23550.4 -207689 
221 1 30.8296 25.3831 4.11852 0.513317 262942 630831 149534 154801 345357 3973.74 
218 1 29.0788 27.2757 4.19344 5.05739 -38141.8 673931 338648 -177193 131530 4125.38 
160 1 30.6149 27.2449 2.29354 0.909214 -351518 -466871 -360866 118558 176740 -233547 
159 1 32.4555 25.4192 2.32003 0.678854 -84214.1 570936 63802.7 -80396.6 234258 62206.7 
222 1 32.6092 27.3245 4.11505 0.604862 440849 -152791 713827 -47296 -101137 264612 
2955 1 34.3571 25.5745 4.14077 0.496478 179036 461610 614536 6165.3 -138708 17177.5 
2886 1 34.4569 27.2662 2.19995 0.653728 -95387.6 -370314 -350111 163751 99831 -54567.1 
100 1 22.6149 30.2674 1.37532 20.4707 -323451 734310 365218 249669 -8768.59 -141936 
115 1 24.3898 32.0991 1.30183 4.9126 -218090 -519405 199747 -87659.3 2887.53 -117157 
162 1 24.1454 30.3071 3.25427 4.94735 -121945 330017 228900 183315 -455.67 110809 
181 1 26.1002 32.1533 3.28052 0.205835 342389 253616 112261 141651 275760 -94750.3 
167 1 26.5128 29.7221 2.65239 1.30902 270233 74079.4 332313 -139102 -88184.5 -38410.1 
172 1 28.5432 31.577 2.81285 0.216137 60213 238338 434263 181590 117008 -9326.13 
237 1 30.7747 29.109 4.14623 6.38952 -215384 -625579 478866 -30685.2 968.977 -284512 
171 1 29.1645 29.1609 2.27158 5.20479 -57488.9 -314227 195829 124347 -274057 -88259.2 
176 1 30.9351 30.9457 2.35694 5.60893 -528723 -631754 -77573.9 33564.9 223942 -46069.5 
2903 1 36.1153 29.0751 2.34646 0.214653 -256959 -437536 125939 332090 233259 362383 
2973 1 34.3798 28.9594 4.19867 0.243712 -699228 -140259 488068 40978.4 -103185 -94925.4 
175 1 32.524 28.9525 2.31641 0.54731 610409 68516.1 -195219 232790 27144.7 120015 
238 1 32.6536 30.7832 4.2504 5.92077 -387348 542366 525326 47540.3 -420165 -171931 
2904 1 34.4415 30.8627 2.30734 0.287371 -83194.5 143005 484348 -11525 102637 -218803 
177 1 23.71 32.8195 3.6402 13.2273 336813 741280 664471 312575 22570.8 333378 
116 1 23.6394 34.5531 1.95918 10.9619 300618 414187 221242 -83172.8 136880 668229 
178 1 25.5602 34.6591 3.72019 5.19691 -670537 -318693 -455313 244868 -210562 14951.6 
1359 1 27.9206 35.7112 1.48343 0.226444 559805 -347105 260618 142330 -180606 66424.5 
120 1 26.0658 33.8691 1.43456 0.301831 -191676 -465576 -349774 -43973.7 56784.6 -222603 
182 1 27.8566 33.9621 3.31359 0.26888 -686184 -80404.3 -100225 -327073 348408 -125261 
1433 1 29.6424 35.5757 3.26118 0.788207 252875 94738.6 295514 -396997 -153884 9141.95 
187 1 30.3869 33.2393 2.84361 0.391046 -795031 -644516 157363 317099 210547 -471947 
192 1 32.2125 35.0806 2.76872 0.678735 -428381 -539922 469340 186439 -34556.2 -331233 
2921 1 36.1436 32.5731 2.36253 0.278246 -809997 -333734 219070 -225268 392086 -243001 
2991 1 34.4222 32.6307 4.17353 6.76616 396676 183577 428565 -176689 140360 182191 
191 1 32.6572 32.7487 2.34513 6.19888 -1.01252e+06 -449516 651059 2447.33 210077 -491006 
2922 1 34.5059 34.4294 2.4447 5.32056 -817403 -466333 363204 -29941.8 438968 46185.9 
195 1 23.0921 22.6802 6.30982 33.1292 436122 153893 668615 85531.6 -430305 184782 
200 1 24.891 24.4687 6.36482 0.471594 -1.01725e+06 64387.8 -71811.7 -185489 547484 582495 
132 1 22.6916 25.0403 6.92542 29.9361 -263986 433427 585196 260850 273848 1931.9 
199 1 25.4872 21.9514 5.81138 16.2292 688881 362885 473830 -336029 215805 307134 
204 1 27.2593 23.7431 5.8904 6.06513 -430839 -472234 245738 -190053 -169946 -64175.8 
265 1 27.1142 21.9725 7.75431 14.851 532582 544307 67667.6 -436971 90056.7 -57534.6 
266 1 28.8569 23.6967 7.94019 5.77661 228871 -427002 67398.3 -239293 -316801 431782 
203 1 28.9344 21.9147 6.01934 15.8383 138588 277390 603566 60071.3 -373315 8759.03 
269 1 30.5696 21.7274 7.68742 18.2063 1.00367e+06 813139 827700 187854 -220068 261517 
208 1 30.7324 23.6371 5.99092 0.214649 53138.3 -1.03656e+06 187188 259877 -72586.7 -464675 
270 1 32.4363 23.6855 7.89025 0.330596 581622 407999 577306 495486 -196004 -34381.9 
2939 1 35.9488 21.6976 5.96628 11.0822 858038 554102 989644 369184 -114111 27198.7 
207 1 32.5258 21.9866 5.89249 15.5412 531947 -518964 548202 -69897.5 -270445 464835 
3009 1 34.2391 21.8549 7.7975 16.6213 1.19888e+06 332733 1.16779e+06 -145094 106184 134345 
2940 1 34.3761 23.5803 5.96816 0.425596 -151897 -312398 417929 -257688 -340670 106900 
3010 1 36.0875 23.5485 7.92512 0.451865 350974 -245990 9714.9 -36040.3 -118520 191180 
148 1 22.5362 26.6786 5.13075 21.1059 -384595 587009 944340 385122 478536 51717.6 
163 1 24.1926 28.6394 5.13043 5.62478 199670 -108040 -151802 39506 376291 189676 
209 1 24.331 27.0153 7.04987 5.61782 119343 -298537 124671 -339436 340215 821488 
215 1 26.684 26.2142 6.5551 0.166938 -237328 67967.7 772119 -673738 165628 126176 
220 1 28.3395 27.925 6.65093 0.352042 297343 648364 1.43446e+06 -565258 93522.7 -116594 
210 1 25.9627 28.7829 7.11201 1.44303 539813 -423740 1.59547e+06 -381118 -22329.6 257919 
219 1 29.0169 25.4339 6.05312 5.24881 -416479 104100 761877 -316672 -287300 126620 
224 1 30.74 27.2179 6.10779 5.83187 45313 -134243 635486 -204324 -423340 174307 
285 1 30.7339 25.443 7.82403 5.90363 -351502 -73774.2 69689 174735 -180463 218586 
223 1 32.5374 25.4218 5.99797 0.156429 385165 402953 420930 -177626 83881.7 -218711 
3027 1 34.401 25.417 7.92336 0.337139 85482.7 74786.8 391967 -256481 117650 243062 
2958 1 34.2811 27.2454 6.16378 0.493132 -563331 -555691 380048 -34471.6 184583 108082 
286 1 32.5298 27.2196 7.90332 5.95281 -206359 206331 -33696.5 -194598 437957 286411 
2957 1 36.0417 25.4506 5.98491 0.359355 -24450.2 170840 185896 -58656.3 138715 -281014 
225 1 23.4365 29.3498 7.31337 17.4707 607658 494231 -350534 233921 242197 -246488 
164 1 23.6391 31.1546 5.61224 12.7249 106845 820620 570693 -148923 -75694.9 -31098.2 
226 1 25.3441 31.0837 7.45749 8.20629 -109699 -613089 -1.14011e+06 470082 -141576 -165131 
233 1 28.364 29.7804 4.6646 0.414411 -119077 -203760 1.31636e+06 -184156 455579 -251526 
168 1 26.0284 30.3612 5.18068 0.281576 -81366.4 -187242 360036 119475 435970 -13934.9 
183 1 27.8948 32.1098 5.25556 0.46034 -331628 -832220 -175878 -185127 432974 -96554.8 
229 1 27.8446 30.543 7.15872 1.31298 456470 -439582 1.02411e+06 -382296 -48267 -66860.1 
234 1 30.2704 31.3685 4.73228 0.529221 -478799 -895971 596718 -47814.2 151417 -445604 
235 1 30.2617 29.6182 6.71179 0.473766 331965 441208 630411 62395.3 120985 -16647.2 
240 1 32.0198 31.5422 6.67917 0.258341 -255122 490879 185049 -44758.4 213960 171319 
230 1 29.6372 32.1553 7.2622 1.59494 -105414 70248.3 1.27622e+06 -311392 -173453 106010 
2975 1 36.0123 28.9368 6.12067 0.524307 381722 -27742.3 383340 -315860 -222197 -130948 
3045 1 34.3314 28.9852 8.08917 5.61803 -387725 154282 207019 -358073 -49228.5 -300765 
239 1 32.5597 28.9487 6.1328 5.41948 -212529 -3159.57 418733 266999 197230 183964 
2976 1 34.2892 30.8273 6.05378 5.92787 -438108 471247 358326 114233 28869 -292020 
3046 1 36.1115 30.6429 8.0199 5.85647 -290572 217128 385514 -371973 172912 19034.2 
241 1 23.5161 32.8347 7.438 17.2113 265110 799244 1.10894e+06 -214147 -99330.8 -201782 
180 1 23.561 34.4699 5.55275 16.1786 709385 1.23555e+06 1.05848e+06 97099.9 -231926 357091 
242 1 25.3095 34.4697 7.3912 0.899601 -773207 19371.3 -74489.6 349067 128102 -23112.1 
179 1 25.4877 32.8032 5.55609 5.20231 -368194 -390262 -203703 -155581 -61829.6 -437940 
245 1 27.1581 32.8518 7.45372 7.21019 -794399 -1.55415e+06 -2.23626e+06 642797 -207563 477419 
184 1 27.16 34.6463 5.63524 5.6257 -492734 73144.7 -459973 -125455 -472828 226040 
246 1 28.9352 34.5519 7.34117 8.01642 -296617 -363231 -1.54088e+06 10436.6 9708.37 110571 
253 1 31.9453 33.2034 4.79554 0.722181 -247215 204281 557085 69211.3 133555 -30861 
1435 1 31.5086 35.6711 5.13116 0.568522 142383 354969 564146 270157 448141 24922 
188 1 29.6276 33.7753 5.22653 0.625119 -372641 152774 -363132 20034 647652 -472557 
249 1 31.4155 34.0555 7.24502 1.56349 283269 -210216 1.56064e+06 -69297.8 -201900 -29415.6 
254 1 33.8252 35.0826 4.79185 0.275068 -7810.97 133104 654183 331781 141274 -357850 
250 1 33.2623 35.6785 7.35836 2.05877 167357 -366305 1.69231e+06 -279277 76540.8 93481.6 
255 1 33.8375 33.242 6.74405 0.154668 83523 119880 1.02296e+06 -153558 198617 -175697 
2994 1 35.6378 35.0175 6.76329 0.217151 502924 24676.4 1.04285e+06 -233906 196585 -142648 
261 1 24.7262 22.868 8.18385 18.7308 925626 883917 992727 -439197 9914.77 487143 
257 1 24.4971 23.8726 10.6007 28.17 -597433 30099.2 1.01941e+06 -478862 -536507 386912 
262 1 26.5615 24.5772 8.44359 0.680728 491243 -16446 938701 -361227 -32889 327224 
263 1 26.5883 22.6596 10.0272 17.0351 238737 321984 150230 45809.5 228687 27648.7 
268 1 28.43 24.3395 10.3709 0.518347 -642973 29934.5 262876 151799 55837.5 -129475 
267 1 28.9117 21.8684 9.49055 13.8759 108764 -142462 36125.4 -216703 328871 475376 
272 1 30.6692 23.6048 9.68513 6.26316 -276551 186090 472781 130163 100777 168096 
271 1 32.4974 21.8624 9.79328 15.2479 920976 -15529.8 1.02401e+06 -182568 36637.2 -423094 
333 1 30.6065 21.7653 11.4787 15.599 -258845 316536 505388 145495 355445 -38867.7 
3012 1 34.2306 23.5964 9.72681 0.35841 -14715.1 -416870 153601 -284941 214024 65547 
3081 1 34.375 21.7542 11.4513 14.8565 491185 127872 997949 -328077 -425910 169981 
334 1 32.528 23.4889 11.5754 5.38318 319186 -785045 58182.3 154556 294075 -442837 
3082 1 36.0909 23.4182 11.6529 0.406956 -261374 -1.2021e+06 431367 -158815 -354791 -461265 
196 1 24.1699 25.5832 8.9038 9.727 728015 930278 858349 -319984 93864.7 1.35121e+06 
212 1 24.2576 28.302 9.46691 11.3353 41608.5 1.09306e+06 1.17566e+06 369916 -73162.2 72472.5 
273 1 24.3955 26.8227 11.5122 12.4849 -187030 727629 934351 -102319 -212311 524199 
258 1 26.2471 25.3205 10.9024 5.06356 -1.71379e+06 -421009 961425 -1.15863e+06 -31727.7 -15938.8 
211 1 26.2196 27.0051 9.01891 4.05807 -1.37756e+06 -611616 1.03357e+06 -107086 163155 -306645 
216 1 27.8912 28.6474 9.17963 4.89309 -61152.2 203462 1.44586e+06 -794718 201492 -353302 
281 1 28.4344 26.1887 8.5839 0.374577 -740945 54872.2 501316 54035.3 65418.7 -136190 
277 1 28.075 26.7825 11.0341 5.5701 -1.50566e+06 -283030 895305 -729744 66621 -371477 
274 1 26.1761 28.4336 11.2026 0.53495 -467979 -288771 495696 -162280 -162773 519073 
282 1 30.2618 27.9477 8.59849 0.333287 25264 -178037 602156 43471.8 236147 92978.8 
283 1 30.2519 26.0834 10.363 0.209856 -1.343e+06 -275893 751622 169192 430289 -151777 
288 1 32.117 27.7567 10.4006 0.291634 -46684.8 154875 1.23337e+06 -212075 185892 -497700 
278 1 29.8311 28.4075 11.1389 5.85784 -127594 179069 1.02495e+06 -406727 32300 -387431 
287 1 32.5172 25.4437 9.74003 6.16398 -26421.2 -161288 586910 402854 162595 -360296 
3047 1 36.1298 28.8901 9.8176 6.24939 -571058 -362112 534117 -625195 10691.6 68041.9 
3030 1 34.5179 27.0921 9.85673 5.7595 -249675 -325140 178135 -100643 37798.5 205505 
3099 1 34.377 25.3014 11.5714 5.69711 -316088 -569.19 582169 -289988 176677 -33894 
228 1 23.5114 30.8044 9.23646 17.0905 336130 1.05701e+06 254526 202447 -32431.9 -325364 
289 1 24.3409 30.0433 11.4191 8.80694 -148936 1.37097e+06 580352 219868 296604 30451.3 
227 1 25.9292 30.227 9.59766 6.45646 -219568 -62454.5 -595286 -38673.9 -72148.5 1.0111e+06 
232 1 27.8223 31.8402 9.36665 4.89517 336768 529198 -251726 363959 -521399 1.06724e+06 
293 1 27.9286 30.1587 11.2778 0.178969 572805 -330696 343366 -394863 -244925 101518 
290 1 26.1029 31.8888 11.5252 5.81196 -120587 529225 152682 139633 -773218 53058.5 
231 1 29.7258 30.3058 9.1218 4.81562 -341299 36272.2 1.31855e+06 111346 276625 -297821 
236 1 31.452 32.1228 9.08129 4.51949 487731 419987 1.29441e+06 -102542 52310 -244428 
301 1 32.0268 29.755 8.5007 0.469974 -1.08196e+06 -69528.2 584997 -94560.5 182503 -276009 
297 1 31.5259 30.3044 11.0477 4.93775 -4814.45 944312 1.53829e+06 150010 41682 -153912 
294 1 29.6907 31.8865 11.3897 0.733515 11992.9 36985.7 797302 -126399 -94527.9 -215082 
302 1 33.8274 31.4204 8.5409 0.146071 -322897 183447 933587 -98941.3 37237.2 -65036.2 
303 1 33.8238 29.5585 10.4769 0.198038 -249973 305168 828038 -67344.2 365288 -282786 
3048 1 35.6328 31.3106 10.4393 0.259403 -746962 132592 773698 160898 233634 -254724 
298 1 33.3576 31.994 11.126 6.1127 -224812 318190 1.46708e+06 -542914 -81938.2 -318521 
305 1 23.7424 32.6096 11.0098 13.4569 15550.9 817053 775635 -249420 443397 349616 
244 1 23.8189 34.4621 9.40046 14.6404 -251566 167077 489093 510484 32688.1 295353 
1573 1 27.3622 36.1242 11.2403 6.17789 416797 14551.4 192912 -191998 -4071.38 -76255.4 
243 1 25.4322 32.7444 9.26291 4.75405 -734560 -557100 -642217 737565 640187 -193974 
306 1 25.5098 34.4074 11.2315 6.15089 -340423 575408 -193218 -168985 -242520 -1179.13 
248 1 27.0874 34.6456 9.19907 6.5793 -351569 -581367 37454.2 -26458.2 16754.5 -573361 
309 1 27.9088 33.7335 11.6543 6.26568 -326443 -74500.3 650042 104256 -755484 467608 
310 1 29.7972 35.4366 11.5595 5.63286 -306498 -319736 138906 -3216.86 348834 329517 
247 1 29.5312 33.7221 9.55319 5.81043 1.07251e+06 1.03158e+06 995623 106302 -370067 379550 
252 1 31.389 35.555 9.67393 6.68213 151624 188781 -210418 304091 -258807 560509 
313 1 31.4487 33.6791 11.3309 0.397366 -111174 -237880 657745 3563.75 20613.8 589351 
251 1 33.1735 33.9448 9.13725 4.7038 236127 602045 1.00688e+06 -42475.2 551.742 43194.8 
256 1 35.0559 35.6046 9.34746 5.17971 245844 -428036 1.06238e+06 243778 71465.4 -250970 
3063 1 35.5922 33.2621 8.70528 0.61352 189057 235862 587337 -476324 223231 -212817 
317 1 35.0033 33.7223 11.0843 5.04546 260887 129786 620574 -299029 248631 -100119 
314 1 33.1875 35.4142 11.3985 0.476233 244625 -482147 -151811 146539 -403790 633086 
3083 1 35.9449 21.543 13.3874 17.3217 751147 501743 488789 66711.2 107190 1756.71 
3153 1 34.2391 21.5203 15.1146 13.3634 957603 -3069.49 991849 -262944 405641 256568 
321 1 24.9048 23.1172 14.731 25.6041 595768 695546 1.03736e+06 -231557 -431740 244330 
260 1 24.4764 24.9396 13.0409 18.8124 318405 -549551 715596 422173 108766 -92168 
259 1 26.0418 23.2993 12.4297 11.1413 -619354 -247577 574292 264015 -366149 13528.2 
325 1 27.6042 22.9175 14.3767 10.8141 945959 40157.6 359798 -26652.6 16304.7 693317 
264 1 27.8779 24.783 12.8919 6.27465 -564616 56052.3 306263 -730145 -81745.1 346439 
329 1 28.3414 22.2774 11.8905 18.0281 -74819.9 743358 807009 227638 183636 91841.3 
322 1 26.3231 25.0462 14.928 3.32495 -994004 -703089 280214 -244367 26946.9 -3470.73 
326 1 29.5068 24.6803 14.7643 5.36747 254106 -680318 136690 694649 -11516.7 149195 
330 1 30.1558 24.1884 12.1456 0.322322 -317998 -309552 103853 104030 -101276 87938.6 
331 1 30.0693 22.4331 13.8436 14.0483 350858 -517519 303297 -490148 405890 -133649 
336 1 31.8646 23.9958 14.082 0.309277 -360621 36984.7 1.17698e+06 -602156 116956 -275896 
335 1 32.3914 21.6794 13.2328 14.0797 1.0371e+06 126398 1.36989e+06 -69577.8 -2387.05 181949 
3084 1 34.2333 23.4386 13.5759 6.5402 28534.5 -246302 539948 187672 -192969 45670.4 
276 1 24.3094 28.3284 13.5125 14.5494 194476 484187 878634 -181358 -123126 -712955 
337 1 24.3444 26.2993 15.0928 15.6284 120221 1.25158e+06 998278 616841 250230 -114557 
275 1 26.23 26.7449 13.182 0.651468 252849 281019 419474 -110660 -477767 335932 
280 1 27.9894 28.5164 13.0992 0.904236 226513 262989 897713 -214106 -73332.5 168594 
341 1 28.1396 26.6066 15.0213 0.917698 -869200 -876917 504219 -91094.3 -52607.9 -487822 