ITEM: TIMESTEP
5600000
ITEM: NUMBER OF ATOMS
5780
ITEM: BOX BOUNDS pp pp pp
1.6278213711979983e+00 7.0672178628817548e+01
1.6278213711979983e+00 7.0672178628817548e+01
-1.3941693102357606e+00 7.3694169310251297e+01
ITEM: ATOMS id type x y z c_csym c_2[1] c_2[2] c_2[3] c_2[4] c_2[5] c_2[6] 
3 1 23.8933 22.0335 0.542778 14.4633 -666832 -461698 176470 -797693 655127 -190347 
4 1 22.1157 23.8196 0.493946 15.6085 -298706 -42131.8 298092 -439038 117693 5432.31 
1 1 22.0849 21.9953 -1.23722 31.9147 740405 602668 1.57361e+06 -217742 -80675 -168013 
65 1 22.3257 21.9661 2.33668 29.3301 253803 623701 1.07728e+06 -236033 361342 -53229.3 
66 1 23.9029 23.7722 2.3395 0.221056 -1.07264e+06 -1.1989e+06 -365505 -612093 390507 -42943.7 
7 1 27.2872 21.6871 0.517884 18.4417 1.06016e+06 880433 738754 708.891 562349 -26185.7 
8 1 25.5466 23.6239 0.460881 0.184208 -1.39074e+06 -1.21337e+06 -58639.6 -1.09531e+06 379589 -69939.5 
5 1 25.4221 21.8378 -1.38472 17.2992 1.02199e+06 261680 638927 -110773 -61257.4 -61998.7 
70 1 27.2424 23.6516 2.267 0.442476 -23221.8 -5112.75 243043 -190621 -172605 350746 
6 1 27.1908 23.6122 -1.35336 0.301267 -60183 -287640 422860 226261 198301 -293886 
11 1 30.9438 21.8378 0.214571 12.6949 1.32149e+06 702109 780849 -126770 477452 698349 
12 1 28.9902 23.7388 0.505507 0.634508 393665 430677 656217 -162177 261868 188865 
73 1 29.1758 21.8703 2.21562 13.7645 1.8989e+06 530180 1.46141e+06 -47402.8 -333208 -7513.02 
9 1 28.8065 21.7894 -1.33896 13.3924 1.09086e+06 505749 1.3461e+06 324825 363241 64191.7 
16 1 32.6563 23.7783 0.342307 0.952078 -379663 -710530 517351 -179749 21703.1 201574 
15 1 34.2917 21.8991 0.514099 14.7857 1.1014e+06 264197 1.34491e+06 -2406.34 3297.2 -118755 
77 1 32.4657 21.8633 2.30141 16.247 1.44775e+06 683691 1.40946e+06 146372 119440 -190030 
78 1 34.3053 23.6891 2.31826 0.239481 279176 -48972.8 226993 -109469 3819.53 20772.6 
2724 1 36.0999 23.5936 0.279175 0.494014 523000 -385781 14531.6 -350706 -174307 463970 
19 1 23.8683 25.4132 0.442866 0.524521 -961855 -691792 17061.3 -471767 226143 300393 
20 1 22.0571 27.1882 0.550791 15.637 340763 946706 657847 -19647.9 -175617 390405 
81 1 22.1536 25.4885 2.33916 15.5271 -249022 -257719 -45257.2 -49349.2 20965.6 31587.4 
17 1 21.9706 25.3784 -1.36318 17.6279 289791 885013 918474 342716 -20906.9 368083 
18 1 23.7543 27.2384 -1.36719 0.130417 -620557 -163178 98799.7 328074 -182916 142265 
23 1 27.1586 25.4117 0.426205 0.523719 -81412.3 -178459 -212835 -131909 -3448.41 71005 
24 1 25.381 27.3583 0.490541 0.448557 20581 -245534 -4593.51 -322311 -258914 233743 
86 1 27.3232 27.3517 2.20878 0.787602 470258 119824 778127 -212962 -140520 178778 
22 1 27.2493 27.2732 -1.37455 0.140444 -219565 -374168 597778 271604 -312097 348876 
27 1 30.7908 25.3846 0.447113 0.564686 -145556 11705.9 454028 67338.6 440076 177716 
28 1 29.106 27.2465 0.353704 0.631126 56897.8 641851 -424842 -11466.8 368955 -124816 
90 1 30.8652 27.3087 2.20401 0.534393 -147984 227504 360733 41877.3 178297 47659.5 
89 1 29.0477 25.5644 2.3302 0.331407 195824 96997.6 337039 296815 322060 76514.6 
31 1 34.2714 25.4557 0.453062 0.282679 -192556 251746 279859 -837600 -120910 230461 
32 1 32.4328 27.3822 0.370896 0.875057 281580 433991 395225 -129462 620267 169303 
2742 1 36.1006 27.3263 0.478902 0.315057 -502504 -453618 276689 588501 -143946 287038 
2739 1 35.9819 25.3889 -1.39238 0.452107 -249497 -537677 -63629.8 12823.3 -277328 381995 
2811 1 36.0502 25.4201 2.14492 0.818656 -1.06839e+06 -281031 345773 289377 320452 262539 
33 1 22.0164 28.9438 -1.32295 16.2634 -223228 986648 957733 50734.2 -260907 135867 
35 1 23.6554 29.154 0.457022 0.313231 -742511 -206961 -36653.8 -10434.3 -333512 38018.2 
36 1 21.899 30.9349 0.485774 17.6741 175524 1.21757e+06 1.3469e+06 -107411 -119691 -10472.8 
98 1 23.5894 30.8995 2.33607 0.137208 -577175 -133089 199717 50704.1 -388802 -25192.5 
39 1 27.1384 29.143 0.50896 0.37769 46139.9 -239346 152351 -325440 -334755 247660 
40 1 25.3914 30.901 0.437961 0.128299 -401014 -467584 -267248 185370 -219239 -4444.56 
102 1 27.0905 30.9006 2.34254 0.333796 83047.2 44740.9 281866 -150803 -165986 -239595 
37 1 25.485 29.0184 -1.32705 0.221824 -475953 -494781 -264626 -311690 36101.6 271624 
43 1 30.7594 29.2055 0.398352 0.512298 -379753 -401634 -70964.9 157178 37670.3 135097 
44 1 28.899 30.8748 0.381681 0.381776 -144180 -452207 163054 223941 82808.2 -201879 
106 1 30.8033 30.8583 2.27008 0.189577 -144985 -428606 381982 -312044 168818 3070.67 
105 1 29.0663 29.0703 2.29268 0.226478 49819.1 349077 581899 -513284 54098.4 -49481.7 
41 1 28.9769 29.2201 -1.38658 0.560626 -581092 -330873 -248372 -58154.7 -400510 -265739 
46 1 34.4729 30.8122 -1.38306 0.29644 -535346 -459691 395885 84597.3 -6632.36 -249329 
47 1 34.3307 28.9991 0.488455 0.309167 -279679 -119345 470632 490498 145732 53169.8 
48 1 32.6564 30.7991 0.501325 0.249958 -87890.2 -568358 -174617 -152250 125891 258855 
109 1 32.6255 29.1032 2.32898 0.0899485 186372 -396354 -39148.9 -171479 386774 147418 
2829 1 36.1424 29.1286 2.34913 0.320802 -15128.8 217269 -45408 -49597.6 489533 86440.8 
51 1 23.6614 32.6689 0.461461 0.0971769 -1.00944e+06 -272866 -324599 -107608 402960 437670 
52 1 21.8737 34.4855 0.532238 18.043 283028 700527 813833 -161940 -126488 426986 
50 1 23.7052 34.328 -1.3463 0.396021 -326890 -217020 226437 11570.3 -306919 323659 
113 1 21.9785 32.8404 2.25572 14.5692 -292734 263278 652818 -506612 131064 320596 
55 1 27.282 32.7244 0.422317 0.667798 -497387 -567112 187010 -2743.83 315307 -5180.33 
56 1 25.4464 34.384 0.442714 0.115701 -250037 -58751.6 88960 -68324.5 -254908 289785 
118 1 27.2194 34.3821 2.35364 0.0682867 -333641 -399753 278126 -219046 97351.9 -320718 
117 1 25.3748 32.6459 2.28356 0.177401 -2385.81 -299762 45367.4 64804.7 -71192.7 99552.3 
1361 1 28.92 36.0664 2.35392 0.374534 -236093 -510091 263006 -224609 276379 30628.7 
60 1 28.9494 34.3928 0.467977 0.119367 -974112 -601692 -177116 -288158 140160 -209274 
59 1 30.7726 32.6504 0.513704 0.218032 612594 240914 316620 34436.2 17889 32197.5 
122 1 30.7447 34.3865 2.3081 0.37634 473474 152706 670230 -40052.7 -142878 -122016 
58 1 30.6863 34.4836 -1.2984 0.66137 1349.19 139997 357043 -403269 322474 84267.7 
64 1 32.6614 34.3584 0.418585 0.726539 -53403.3 -10939.7 547737 -410195 96424.8 247536 
63 1 34.4213 32.5663 0.472311 0.126741 -343340 -450931 414054 194103 -100887 123038 
125 1 32.5661 32.5188 2.34875 0.19941 -106071 -76844.5 482291 -161084 -338535 -168104 
62 1 34.3855 34.367 -1.3694 0.257453 -126351 76366.7 -81045.8 -6590.15 -75947 -175789 
2778 1 36.0859 34.4192 0.463983 0.243711 -127487 -100930 512532 137905 -114082 69526.1 
61 1 32.5822 32.4651 -1.33089 0.610732 342934 259691 196344 -338837 -14067.9 -86650.7 
67 1 24.0099 21.9218 4.18162 15.695 -486744 175106 -257323 -341962 380002 5616.1 
68 1 22.2608 23.792 4.17065 14.5782 21821.3 443369 767737 -514767 91848.8 379647 
129 1 22.4545 22.0103 5.99773 24.2397 229239 -212328 775081 -578786 336325 -164661 
69 1 25.6473 21.8291 2.40941 17.3982 333299 385036 311220 -408836 110070 60186.4 
71 1 27.2458 21.9815 4.24689 15.0374 880658 207395 1.153e+06 76826.5 -549438 67293.1 
72 1 25.5585 23.7592 4.32639 0.396709 2203.72 -673265 194243 -107179 -139985 -2624.06 
74 1 30.8817 23.8093 2.39789 0.78283 -263243 -149862 258737 -190607 -36628.2 446924 
75 1 30.763 21.9941 4.2565 15.7237 516021 -59524.7 957397 375124 102617 36476 
76 1 29.0711 23.6413 4.02196 1.2918 -334227 -493907 352672 464937 258201 267076 
138 1 30.8329 23.8038 6.06224 0.360184 77824.9 -434477 541326 97018.7 -12179.5 -293490 
137 1 29.0429 22.0422 6.06727 15.7038 549592 305660 672316 108617 -27117.1 -5807.29 
80 1 32.6209 23.6934 4.12693 0.316948 51450.1 304992 133269 -206165 -219215 166471 
79 1 34.3518 21.8183 4.12921 17.5731 1.40329e+06 279734 1.78697e+06 -359766 -312207 9266.62 
142 1 34.3199 23.649 6.02591 0.167803 316863 328877 674493 12032 2246.72 17878.5 
2865 1 36.0183 21.751 6.05536 18.3368 1.72333e+06 572438 1.78352e+06 103910 -72718.2 33724.7 
2796 1 36.0202 23.554 4.18876 0.501625 -89436.2 -59783.5 677611 39035 -22810.7 -130239 
82 1 23.6986 27.3423 2.41384 0.244092 -1.01317e+06 -323337 63058.3 -658264 221849 93005.5 
83 1 23.8038 25.6151 4.27158 0.33516 -982777 -1.12889e+06 87190.6 -322558 -371151 -116144 
84 1 22.0021 27.2242 4.17046 16.8029 -406930 669896 615184 217901 118731 -181987 
146 1 23.6947 27.335 6.01318 0.294325 -100115 95026.3 -78084.8 -39398.7 59323.1 -259097 
85 1 25.5602 25.4943 2.37411 0.224723 91492.4 225459 596394 -386979 146523 44525.6 
87 1 27.4018 25.5323 4.22307 0.29301 -296912 310614 255569 -360221 55797.5 60539.1 
88 1 25.536 27.3203 4.32105 0.371304 -65930.3 -365322 436429 -719090 76113.6 80829.2 
149 1 25.625 25.5442 6.08493 0.253969 -268999 -554137 -90298.6 -213860 -325431 154400 
91 1 30.8139 25.6143 4.21668 0.311505 188871 351124 -59629 27182.5 356696 -262761 
92 1 29.0022 27.3449 4.26585 0.40411 -304001 -485664 386217 -178282 14632.7 -61784.5 
153 1 29.0902 25.4447 6.02994 0.480947 -1.02792e+06 -493291 86838.3 -74919.1 -3166.78 340093 
154 1 30.7909 27.2674 6.10006 0.205884 -72256.2 -155313 176783 -291193 38600 -173276 
94 1 34.4382 27.2631 2.41691 0.435308 361744 -22714.3 462485 34328 467607 15389.7 
93 1 32.5907 25.5221 2.4278 0.524157 -294785 -254001 502206 -162654 131227 35977.5 
95 1 34.4263 25.4754 4.22259 0.174572 279391 -32983.7 -21406.4 -22002.8 -236050 -25532.6 
96 1 32.6114 27.3729 4.18051 0.413307 340362 303162 509963 -6238.61 174143 -72124.9 
158 1 34.4814 27.1953 6.05644 0.467273 -59458.3 -63295.1 462874 -83813.1 148603 -35268.7 
157 1 32.6389 25.5221 6.09237 0.115995 -183232 410082 695605 -171665 234442 -52255.1 
2883 1 36.1268 25.3964 6.0823 0.0931001 -52170.8 -220022 349015 248502 -25077 294706 
97 1 21.9034 29.0401 2.39198 18.0419 344423 1.0692e+06 1.50672e+06 68621.9 -104547 128371 
99 1 23.6694 29.1166 4.239 0.120674 -430502 -355236 -422632 -449338 160453 -199557 
100 1 21.8398 30.9476 4.28399 17.7239 541297 1.53145e+06 1.56492e+06 -158308 -192197 -154397 
162 1 23.6412 30.7818 6.06738 0.33648 -227116 74485.9 381359 57433.3 245749 -108103 
161 1 21.8256 29.0033 6.02612 16.263 333736 1.03702e+06 1.15813e+06 56458.9 9619.49 129976 
101 1 25.334 29.1389 2.40912 0.367261 -298262 -116773 171348 -435532 127424 -205771 
103 1 27.2122 29.058 4.13931 0.28929 -93208.7 -43935 472956 -457868 39718.1 128499 
104 1 25.2965 30.9375 4.18673 0.478256 -517799 -804857 -260635 -58802.6 200413 -123805 
165 1 25.4888 29.1518 6.03735 0.37318 34224.5 -48829.3 492482 -162034 -44957.5 -147699 
166 1 27.2397 30.8481 6.06705 0.167304 264963 186293 797349 -171724 216157 281684 
107 1 30.808 29.083 4.1752 0.114446 -160669 422948 702640 -72043 209977 75193.1 
108 1 28.95 30.8333 4.16393 0.244563 2196.93 -543395 138311 -250899 186396 551580 
169 1 29.0814 29.1661 6.02543 0.439073 -21889.5 29167.2 349266 -142487 77257.2 -842.844 
110 1 34.376 30.8621 2.40865 0.188889 -733440 -386807 -114086 207985 134491 -34870.1 
111 1 34.5694 29.0302 4.22372 0.810763 135552 -160961 -23639.1 67629.8 53047.8 -150586 
112 1 32.6425 30.7613 4.21529 0.263326 111555 338298 367971 -535559 139908 -137695 
174 1 34.3979 30.7868 6.07017 0.372417 61855.4 -143352 624549 -72759.4 -76623 37389.9 
114 1 23.6181 34.5086 2.40367 0.342798 -713470 -107365 706479 -429531 -394557 117328 
115 1 23.6846 32.67 4.21019 0.170095 -776170 -391274 299277 37265.7 -116961 -56138.8 
116 1 21.8498 34.5132 4.32961 16.5338 68490.5 1.00235e+06 1.41157e+06 -709914 -85271.9 -29579.8 
1355 1 23.5399 36.1329 4.47513 1.0067 -327181 -105932 605496 -289919 -72078.3 167153 
1359 1 27.2746 36.0313 4.27626 0.398132 -376684 -11081.4 327474 417635 75188.6 -89000.4 
119 1 27.1658 32.5933 4.27278 0.118386 152509 -24811 340257 100671 300974 -17886.4 
120 1 25.3844 34.3803 4.22353 0.222081 -49060.4 -30933.1 478041 -373507 19561.6 -110808 
181 1 25.3426 32.6048 6.11317 0.264903 -89310.1 265530 265706 167759 60686.8 -110403 
121 1 28.9675 32.5819 2.45628 0.408555 6937.55 1034.7 324785 79808.4 -30827.5 287790 
123 1 30.7157 32.5372 4.29495 0.400582 -193389 471779 360486 -273824 -53812.9 132664 
124 1 29.0064 34.3692 4.3013 0.119249 -235404 -340695 576197 269098 124985 129910 
1363 1 30.7797 36.0631 4.37069 0.441981 -166015 -132451 147567 -229283 71412.1 348014 
2850 1 36.1415 34.3986 4.26448 0.159728 381159 118522 133831 101183 -103465 243241 
1367 1 34.2843 36.1177 4.17694 0.425125 -97532.4 -351350 -611250 -25988.9 -197864 246203 
126 1 34.2905 34.4061 2.42435 0.323841 103987 119380 222936 -100326 8015.64 -296064 
127 1 34.3081 32.5799 4.22828 0.14661 -502303 -421548 -39179.8 278786 -71264.8 -55440.1 
128 1 32.5388 34.2753 4.26546 0.395471 -309818 -419175 -174550 220140 12104 554469 
189 1 32.5626 32.6717 6.07541 0.367658 339879 10117.1 173951 -132084 333278 252060 
190 1 34.3889 34.4462 6.08745 0.226968 -124361 226272 331689 196283 57108.6 -88229.6 
130 1 23.8132 23.868 6.15147 0.759474 -1.39928e+06 -1.12925e+06 243040 -533136 -71482.7 -47611.7 
131 1 23.9199 21.9879 8.12658 14.6409 340826 361443 727971 60680 308825 -250730 
132 1 22.0397 23.5891 7.91798 16.191 467178 596561 851907 221109 101545 371164 
194 1 23.8565 23.89 9.77357 0.696565 -558592 -1.01572e+06 396880 126090 210480 102201 
133 1 25.3996 22.017 6.16953 13.4878 895732 207238 226926 341606 -204566 137008 
134 1 27.3316 23.8088 6.13401 0.177956 -486113 -761765 242775 288911 -230104 290878 
135 1 27.2506 22.0235 7.92919 15.8667 1.3275e+06 247951 1.20627e+06 145419 -185227 105097 
136 1 25.6143 23.8817 7.99567 0.237847 87753.2 -124132 202109 31869.7 318278 -7373.1 
139 1 30.7128 21.859 7.9061 17.4693 684523 636606 845782 -14379 187341 -2182.74 
140 1 29.0957 23.8076 7.98129 0.169242 180045 -133083 -53915.8 -106970 -58118.2 98909.9 
201 1 29.0817 21.9721 9.7516 15.6972 509641 -14912.7 777598 85285 264860 101174 
141 1 32.5135 21.8295 6.15488 17.6658 1.52347e+06 700979 1.42743e+06 -87766.2 -73706 -291274 
143 1 34.2804 21.7904 8.03196 17.1349 1.39174e+06 681818 1.67029e+06 183184 -192231 -175597 
144 1 32.5445 23.5906 7.96761 0.227712 250548 -130425 606195 242042 -176709 -114533 
2868 1 36.1247 23.6103 7.85811 0.52018 425641 31435.9 649127 -251253 27061.1 142620 
206 1 34.2868 23.6319 9.8209 0.142361 646893 33285.8 101584 -125490 -192065 -137771 
145 1 21.9562 25.503 6.27382 15.2267 83534.6 1.24449e+06 1.386e+06 12629.5 -270784 11358.1 
147 1 23.7338 25.6386 8.00557 0.351576 182057 91294.9 24559.4 -2017.72 -232736 -171308 
148 1 21.8826 27.4071 7.96362 16.2511 87176.3 691411 1.22117e+06 -569445 -33858.7 -102163 
210 1 23.7549 27.308 9.80447 0.145201 77835.4 15352.1 4047.8 -279070 237830 -277279 
150 1 27.3689 27.3164 6.13348 0.255177 -124970 -25419.1 -408976 -319108 15218.9 227327 
151 1 27.3489 25.6731 7.95211 0.474017 -492792 -487989 179069 -670853 31811.8 39098.7 
152 1 25.5081 27.4013 7.96264 0.209869 113635 25443.4 599722 -152172 302125 -158032 
155 1 30.9492 25.4739 7.92337 0.465998 -369934 -106199 -339134 -56499.2 -178012 -88166.2 
156 1 29.0941 27.2504 7.94905 0.180214 -685037 56548.7 443343 -616781 32441.3 -5962.64 
2955 1 36.1263 25.3944 9.79997 0.151832 148248 318439 21605.9 93824.2 67486.6 391547 
159 1 34.3633 25.4167 8.0006 0.148847 163785 439313 524015 -33916.2 -144675 170460 
160 1 32.6568 27.3393 7.97826 0.323904 363790 -377267 -11375.2 -238526 -189198 698181 
221 1 32.5029 25.5489 9.7766 0.801568 -597992 77511.2 -32177 -11208.4 -487509 59361.7 
2886 1 36.1302 27.1869 8.0251 0.142738 461217 353158 442303 -100032 69212.4 111049 
163 1 23.588 29.0357 7.92705 0.32683 -115816 -226486 743006 -338042 -74109.1 -14889.9 
164 1 21.8232 30.8246 7.93062 16.4891 648846 1.47015e+06 1.41678e+06 158955 71652 21891 
225 1 21.7306 29.1033 9.85261 18.6163 1.07788e+06 1.59439e+06 1.60131e+06 -234552 86447.5 -35361.9 
226 1 23.7071 30.7393 9.81608 0.391308 -208832 207164 586216 256759 52925.1 61469 
167 1 27.3657 29.0889 7.99041 0.186525 365460 327337 833293 72389.2 99180 -39001.7 
168 1 25.5035 30.786 8.0788 0.444243 141295 145566 410422 -80288.5 166830 -64929.5 
170 1 30.8858 30.8376 6.17341 0.305146 121003 -362488 525163 -146295 75309.2 286183 
171 1 30.8022 29.0919 7.98745 0.195306 113755 242293 191858 -174028 195244 176464 
172 1 29.0595 30.9981 8.04025 0.573616 300902 34786.9 247603 -278598 163470 -25860.6 
173 1 32.5683 28.9618 6.22881 0.717897 523804 47221 404788 -127159 117510 409886 
175 1 34.4427 29.0491 8.08149 0.345598 -160440 -56276.4 246182 -185768 -120495 -91227.8 
176 1 32.617 30.8353 8.10572 0.238373 214711 284616 629820 -81664 -422226 -83363.1 
238 1 34.4448 30.8264 9.81273 0.509042 53629.8 -93977.7 -140464 -19648.4 -139250 229167 
2901 1 36.1125 29.0879 6.19737 0.407307 -259864 55266.3 208409 126967 129549 -193802 
178 1 23.6591 34.3578 6.19394 0.209709 -561234 -493212 446626 -235299 -172882 477343 
177 1 21.9368 32.6822 6.1467 16.4385 255837 772977 1.06201e+06 -369954 -62732.5 -85977.2 
180 1 21.8676 34.2342 8.19044 14.3124 151345 854979 1.199e+06 94168.8 -166602 -50897 
179 1 23.7049 32.6065 8.03835 0.212477 -223719 269760 403071 153193 -41922.1 304675 
182 1 27.2772 34.3062 6.17757 0.338161 235865 -73615.4 284395 178597 73178.4 238767 
183 1 27.1253 32.6451 8.02848 0.424132 176011 -179374 377502 -140054 123435 431492 
184 1 25.3851 34.4436 8.08462 0.294799 87525.6 115870 258139 -297748 -6413.82 277405 
1429 1 25.4922 36.0475 6.15822 0.532913 81656.3 -329756 72312.2 -567819 -453062 145045 
186 1 30.8545 34.4806 6.23187 0.609293 -67618.4 -340721 -140637 -106404 -68808.6 415144 
185 1 29.1041 32.5941 6.15054 0.324018 110231 40798.6 71442.6 280007 194198 326410 
188 1 29.0196 34.3228 8.07443 0.257486 2434.54 76562.6 292193 -192101 -210442 45139 
187 1 30.8668 32.6434 8.01038 0.178473 -452051 -102941 427109 -209137 -63966.7 -129143 
1435 1 30.7382 36.1206 8.13168 0.545219 119137 47410.2 -149505 -208721 6891.91 -44900 
2991 1 36.1042 32.6863 9.86552 0.531881 -174359 -93794.9 94571.1 110469 -356613 -381273 
2919 1 36.0207 32.5715 6.12985 0.807528 211088 -435613 76474.8 -73829.3 137647 -428706 
191 1 34.4609 32.5578 8.06154 0.425799 -140483 184376 60917.1 -99533.5 10465.9 299902 
192 1 32.6283 34.4194 7.98263 0.212105 206750 -30324.1 253819 -325139 -144539 -384037 
1509 1 32.6678 36.0993 9.76214 0.912271 -242689 -243155 9071.92 221257 51817.5 161397 
193 1 22.168 22.1194 9.87544 28.1699 511070 677329 1.02796e+06 -66012.5 20672.7 212148 
195 1 23.8699 22.2088 11.7264 14.8117 -1.58808e+06 -69610.3 -797669 -154592 1.12349e+06 -171.006 
196 1 22.0459 23.8302 11.81 14.9585 219485 -58854.9 1.02974e+06 124374 -149360 564008 
257 1 22.3195 22.0705 13.412 26.7807 -251630 -279585 161045 -412871 805436 320164 
197 1 25.5758 22.1419 10.0722 14.122 280228 -158828 598184 -141213 350347 -420125 
198 1 27.4047 23.7213 9.89717 0.283636 -98324.2 -343412 426639 -161025 184954 -275218 
199 1 27.5332 21.9364 11.7934 14.1422 1.2895e+06 486552 988478 -390507 -171780 -17312.8 
200 1 25.6694 23.8233 11.8164 0.296078 -300005 -1.24676e+06 -421376 -935270 39777.6 -858445 
261 1 25.5469 21.9609 13.5361 15.9066 1.49016e+06 630750 1.16199e+06 225863 -129792 220204 
262 1 27.4562 23.8127 13.587 0.476748 156647 -365685 123917 49792.2 -100976 30470.9 
202 1 30.8173 23.7097 9.87609 0.16023 -670893 -751547 447914 416004 197177 -69263.8 
203 1 30.6409 21.7992 11.7944 13.8476 915186 229541 1.01951e+06 501213 -329330 -56520.5 
204 1 29.2057 23.7313 11.769 0.39614 -818084 -708754 142945 -102476 242933 -7744.84 
3009 1 36.0565 22.0067 13.5658 14.7108 -51048.7 -518788 822148 423182 -99795.2 -182193 
2940 1 36.1059 23.6862 11.6269 0.337572 48858.9 -249208 -192445 -137582 230584 54001.7 
205 1 32.3822 21.8504 9.88919 14.3638 1.34341e+06 225909 1.53388e+06 341811 -17027.7 -49163.1 
207 1 34.3909 21.806 11.5999 16.0146 1.09203e+06 240006 999360 64839.6 123186 -123000 
208 1 32.6202 23.6115 11.7343 0.396378 -526414 -573186 -186061 260554 -171023 50873.6 
269 1 32.5001 21.7414 13.3718 15.066 561303 24137.2 1.01844e+06 7772.04 11542.7 329798 
270 1 34.2729 23.4656 13.466 0.950153 -947948 -771059 470151 630660 -438447 -75611 
209 1 22.0117 25.4567 9.89491 16.2987 -43613.6 1.24169e+06 1.14733e+06 205130 105574 -17373.1 
211 1 23.8009 25.5726 11.706 0.124644 -457738 224444 373448 -205716 -230021 -95607.2 
212 1 21.9805 27.2581 11.6657 16.2198 263649 840343 1.02629e+06 5047.52 186877 163378 
273 1 21.8795 25.6892 13.5518 15.0545 640876 485420 239867 -369870 -16355 105039 
213 1 25.6152 25.6195 9.87252 0.113618 -207988 -18538.7 175438 -404590 -13868.8 -411122 
214 1 27.4127 27.3028 9.90438 0.185884 -39190.5 -338720 307760 -395776 271848 -161482 
215 1 27.4029 25.4724 11.6979 0.242693 -479466 -488373 -29632 -360891 -13361.5 167444 
216 1 25.6111 27.2614 11.7341 0.0937941 142466 -336912 -71251.9 -2539.99 142251 -218547 
277 1 25.5844 25.4854 13.5525 0.273072 -113784 -580163 111000 -128302 76199.1 -235179 
217 1 29.2184 25.4864 9.88623 0.186284 -114664 -673123 472141 55552.1 195167 -77105.7 
218 1 30.8333 27.2873 9.89785 0.115195 -623731 -539810 623197 -119261 121210 -159971 
219 1 30.9661 25.3848 11.8641 0.655739 -385679 -431081 393237 -190455 48217.2 20577.6 
220 1 29.205 27.236 11.8127 0.24297 -208989 -139012 16147.7 -638925 99279.1 208702 
3027 1 36.0382 25.2479 13.584 0.666733 175511 96752.9 817163 484509 36884.3 -69619.6 
222 1 34.3186 27.2737 9.91246 0.202951 152579 162319 54791.2 -288592 68083.1 257842 
223 1 34.2485 25.3947 11.5731 0.891993 76921.2 -130936 556278 94806.8 30336 56022.2 
224 1 32.608 27.2495 11.8163 0.167973 58383.8 129417 673711 198971 160719 24586.1 
227 1 23.7728 28.9772 11.7169 0.206613 154960 107501 743367 -330839 102319 -86286.5 
228 1 21.9397 30.7951 11.859 16.7163 506559 1.04539e+06 970950 -111703 -281101 -102243 
229 1 25.5492 29.0124 9.87987 0.181736 127003 -326139 -78622.8 -30160.3 156149 -146305 
230 1 27.254 30.9356 9.89563 0.27281 -456131 -263436 14544.6 -18501.1 89829.9 142845 
293 1 25.5463 28.9417 13.6072 0.194536 -175331 -352162 341829 -142590 -96637.5 -286390 
231 1 27.3949 29.117 11.686 0.456484 -3224.14 -9734.36 4530.78 -317618 262038 -210354 
232 1 25.4538 30.7717 11.6611 0.241762 -2984.61 -2498.02 111344 -327123 -105080 -44656.1 
294 1 27.1907 30.8463 13.547 0.476391 183999 138459 657000 173365 64195.8 -179839 
234 1 30.7631 30.7802 10.0181 0.497185 -907269 -354528 359736 49174.1 276313 -34007.5 
233 1 29.0933 29.0977 9.93791 0.127315 -629814 -217623 183211 -710421 335624 -165034 
235 1 30.8281 28.9792 11.8522 0.27113 -401711 -675218 163224 -242843 83090.2 179147 
236 1 29.1339 30.8344 11.8072 0.272195 -44997.7 4527.18 -226128 -323410 481147 -294677 
237 1 32.4813 29.0886 9.94132 0.554615 -11984.1 -259178 302957 156211 11517 3613.58 
239 1 34.4044 29.1026 11.7418 0.167257 8949.18 93041.1 695743 -31520.5 42685.1 -71067 
240 1 32.6159 30.7802 11.8124 0.234783 228250 -102006 250695 33327.4 -78035.1 9734.05 
2976 1 36.1041 30.855 11.8055 0.214637 74720.7 308216 652138 -150325 323409 10735.5 
1497 1 21.8564 36.0822 9.99198 16.9594 -302602 558182 587367 7739.68 162971 28147.4 
241 1 21.9129 32.4385 9.9316 14.2492 305095 1.03507e+06 773380 376045 -213927 197028 
242 1 23.6865 34.4336 9.93782 0.286014 -479765 217842 -131551 330112 85198.2 312275 
244 1 21.9171 34.3108 11.7037 16.1486 14022.5 151417 793613 289340 244085 423120 
243 1 23.6492 32.6348 11.7298 0.299592 -732617 -59358.6 270771 -3810.44 103554 33718.2 
305 1 21.9282 32.5802 13.5583 16.4194 285842 955349 814670 -94226.2 90133.9 -297897 
246 1 27.1917 34.3682 9.96802 0.201085 184982 307212 268240 -107318 -86647 199600 
245 1 25.4236 32.5628 9.90343 0.142754 -425502 -395858 -195324 119877 7491.85 51013.1 
247 1 27.1914 32.6416 11.7502 0.186816 330019 -283195 -201123 -94270.2 33543.1 50068.7 
248 1 25.4122 34.3846 11.7814 0.0819596 -109260 286081 4539.77 -99166.2 80652.5 -146855 
310 1 27.2526 34.3587 13.5894 0.13689 111010 -269643 -71260.1 -110233 -13929.6 -126276 
250 1 30.7805 34.4058 9.90152 0.194372 35968 -78087 -178971 -204131 -23409.7 334999 
249 1 29.0433 32.5967 9.9 0.179609 87922.7 -680602 26251.5 -280587 77902.5 -307568 
251 1 30.8597 32.7113 11.82 0.381752 -181904 61298 40891.5 -59431.4 35273.5 -96670.3 
252 1 29.0296 34.3766 11.6843 0.295972 -2198.09 284170 368573 278883 108296 -242267 
2994 1 36.1235 34.2724 11.7862 0.369313 -677204 -373551 -179229 -284190 -117684 -73149.2 
1511 1 34.3625 36.1082 11.8141 0.278132 268419 -389157 270395 -462828 198868 -114063 
254 1 34.426 34.3906 10.0073 0.554385 -841599 -579011 160769 470473 -38311.8 -142714 
253 1 32.583 32.6174 9.94319 0.115447 525523 507683 371715 57082.1 -42582.9 -271577 
255 1 34.3239 32.6265 11.8484 0.286906 -398233 -536097 -2641.39 -110616 -56454.4 425712 
256 1 32.6404 34.4475 11.715 0.256169 -882651 -847920 114156 -183357 82242.3 -210431 
258 1 23.877 23.8364 13.6836 0.658936 -1.12233e+06 -863312 -151181 -1.13428e+06 172729 -394903 
259 1 23.9057 22.0098 15.487 16.2766 929551 584514 1.21569e+06 -430455 270737 32108.8 
260 1 21.9446 23.8457 15.1687 17.9847 331235 434770 741684 -382126 494364 417945 
321 1 22.0273 22.3414 17.0648 37.627 571876 851854 1.52957e+06 -228967 189460 332374 
322 1 23.8953 23.8254 17.3602 0.947805 -513447 -669726 624766 -342288 164593 -309945 
263 1 27.3177 22.0551 15.508 15.4836 584455 275175 595208 261837 363797 -191909 
264 1 25.5936 23.8079 15.5085 0.222522 -146412 -52014 411982 -83332 1719.68 7486.1 
326 1 27.4917 23.7331 17.3696 0.602419 455310 149195 727578 -109376 -91061.7 -113120 
266 1 30.9141 23.6116 13.6399 0.327181 34182.5 -417051 -697364 118817 -192010 130450 
265 1 29.0119 21.8579 13.8043 14.3053 648988 485698 586133 171028 133844 -269520 
267 1 30.997 21.8048 15.3909 13.4007 866417 -177931 1.05675e+06 -489770 -163240 166138 
268 1 29.2758 23.6962 15.542 0.700607 -523340 -221332 -90555.4 -343992 -191822 -111927 
329 1 29.0102 21.6867 17.3277 16.4192 1.48983e+06 826864 1.62066e+06 82966.3 -358103 -9.69903 
330 1 30.8062 23.5466 17.3524 0.376051 -283002 151599 358287 405899 -408384 31396.9 
334 1 34.3894 23.6393 17.3388 0.290192 -1005.98 -118084 604876 -178858 -109428 416125 
271 1 34.2939 21.756 15.4175 17.7694 1.92517e+06 843651 1.81362e+06 72764.2 197402 131817 
272 1 32.54 23.617 15.4664 0.313532 -354086 -648780 469550 -514709 -329159 252797 
3012 1 36.142 23.5871 15.4629 0.256947 93782.1 -424416 -301636 155298 258119 -201727 
274 1 23.7929 27.2624 13.6479 0.125306 -419175 -122767 312811 -337664 53554.3 -47598.1 
275 1 23.7133 25.5371 15.5094 0.449633 -219931 -401272 555060 294607 -70529.9 -123118 
276 1 21.9651 27.147 15.4767 14.3904 -77746.8 487135 426005 493001 -97980 -468735 
278 1 27.3999 27.3533 13.6297 0.364313 -490873 -314525 528147 -12128.4 -62800.1 -206825 
279 1 27.4743 25.4547 15.5008 0.339765 11324.5 4670.4 436904 -502890 365897 -38010.3 
280 1 25.5671 27.2178 15.5273 0.133526 -134577 -103480 605783 -104264 -245499 122550 
281 1 29.1415 25.5635 13.6595 0.34329 -773082 -342928 -275979 -552084 -13888.2 196255 
282 1 30.8831 27.2741 13.7336 0.153094 69975.1 -220473 -304504 -314509 -337789 372935 
284 1 29.0415 27.2764 15.62 0.376591 -65469 -269639 258323 -263218 134913 -129088 
283 1 30.8938 25.4481 15.3804 0.905365 -716929 -843771 36671.5 -529704 -126788 208651 
3030 1 36.0514 27.087 15.5673 0.31746 -303399 -56284 617812 127577 -109544 224247 
288 1 32.5808 27.2153 15.5857 0.22063 -210704 106168 -77425.2 -148827 60873.3 -275296 
286 1 34.4133 27.2548 13.6883 0.246027 322247 182084 802561 -389174 -333421 -63215.4 
285 1 32.7168 25.434 13.7113 0.68951 -473147 74934.1 -479013 -177375 -368182 157954 
287 1 34.2802 25.3586 15.5087 0.237254 -375355 105249 12967.5 -315821 -594798 388228 
3099 1 36.1092 25.3132 17.3683 0.226693 -213006 -378559 225855 -86188.5 -89349.2 223140 
289 1 21.9138 28.9548 13.7366 15.6188 671599 1.23017e+06 1.57427e+06 -34030.1 -70946.5 100413 
292 1 21.9672 30.7325 15.5894 15.9322 117733 448247 567287 -366569 -270165 116248 
291 1 23.8298 28.9063 15.5642 0.611736 -759729 -434706 -158409 -74753 8983.01 -171813 
290 1 23.6982 30.7239 13.6291 0.0812762 -206885 526111 337555 -195523 -508439 -323940 
353 1 21.9274 28.9543 17.2187 15.7276 -12187.2 166018 857565 -76948.8 181228 232344 
354 1 23.6565 30.6751 17.3767 0.31855 -575303 273178 84737.2 194974 -252305 -45947.3 
358 1 27.1627 30.7606 17.3294 0.304012 264929 53111.5 393039 134374 325458 -118813 
296 1 25.392 30.7482 15.4446 0.283933 -34779.9 -175017 166752 -139104 -259995 -8451.4 
295 1 27.2602 28.9704 15.5598 0.167427 -350946 -556062 922.212 -247438 132044 -275925 
298 1 30.9206 30.8266 13.7127 0.275886 -339149 -269618 220267 156510 -78404.9 56246.8 
297 1 29.023 29.0651 13.7613 0.45614 -296365 -249043 -23202.2 -556196 -72056.2 -304621 
299 1 30.8152 29.0829 15.5204 0.312169 -298719 -330436 278237 -58110.1 -337946 -81472.3 
300 1 29.0068 30.7275 15.5474 0.268562 160841 -29264.5 554489 139096 128022 -308634 
301 1 32.6849 29.1246 13.6976 0.353725 226164 119561 450003 323612 -19805.7 78733.4 
302 1 34.4623 30.9406 13.6553 0.515745 -379584 -427663 20094.4 -391891 -29683.1 -31580.3 
3048 1 36.1258 30.8511 15.5721 0.222779 -475805 169904 40801 75473.3 -162031 230373 
304 1 32.5742 30.7827 15.6264 0.341218 -156978 -33293.6 -212253 -137387 -233028 44574.8 
303 1 34.4473 28.9714 15.5734 0.254071 147033 140682 132936 61442.7 -62684 -524484 
366 1 34.3889 30.7373 17.3681 0.268323 -109709 26932.8 48652.3 -28417.2 -128951 -144800 
1569 1 21.9564 36.0706 13.631 16.0563 -55926.6 1.34941e+06 1.21968e+06 125889 376231 36664.4 
308 1 21.9136 34.2453 15.5279 16.6055 447956 1.32436e+06 1.37128e+06 380469 -188596 -122182 
307 1 23.6367 32.4924 15.4577 0.201619 -494109 -192768 631870 131171 -63451.9 -95663.8 
306 1 23.7311 34.3317 13.6369 0.192652 -673292 -267943 328423 -25454.9 26236.5 -106976 
370 1 23.6824 34.3607 17.3011 0.136011 -178473 602780 354546 330157 -525126 190270 
1573 1 25.4184 36.102 13.6582 0.239941 -181936 5118.88 -201257 -18367.2 120028 61185.3 
1575 1 27.1603 36.0858 15.4263 0.467195 -36092.7 222118 315132 -37603.7 -1164.93 -134577 
312 1 25.4661 34.3291 15.4481 0.0924648 -143668 -574980 -119972 -33101.1 29769.4 374473 