ITEM: TIMESTEP
9000000
ITEM: NUMBER OF ATOMS
5780
ITEM: BOX BOUNDS pp pp pp
2.2091618800720654e+00 7.0090838119943484e+01
2.2091618800720654e+00 7.0090838119943484e+01
-2.6913007723160076e+00 7.4991300772331556e+01
ITEM: ATOMS id type x y z c_csym c_2[1] c_2[2] c_2[3] c_2[4] c_2[5] c_2[6] 
3 1 23.8803 22.2817 -0.951548 17.5563 484663 310660 1.2872e+06 -565433 420318 134796 
4 1 22.1079 24.052 -0.521763 14.0991 681632 891860 1.1947e+06 -332366 -163049 -729958 
1 1 21.9313 22.7491 -2.66652 29.4845 1.01324e+06 893376 1.30525e+06 -153915 -65762.3 237000 
7 1 27.1771 21.9657 -0.945971 16.3168 1.31972e+06 305328 1.74517e+06 200957 -162949 -85247 
8 1 25.6604 23.8356 -0.744711 0.346274 -769191 -769534 286375 -269030 -406947 -107271 
70 1 27.2856 23.7363 1.04081 0.76905 -716917 -789287 666174 206245 -207343 233242 
11 1 30.7845 21.8881 -0.795899 18.5641 1.58759e+06 506903 1.84758e+06 -470525 -159834 91172.4 
12 1 28.9571 23.7775 -0.823422 0.24609 44954.1 68465 616950 200506 110158 122679 
73 1 28.8387 21.9401 1.16675 17.2839 1.28935e+06 353829 1.71123e+06 350069 288703 17356.4 
74 1 30.7006 23.6495 1.16911 0.136685 769378 41837.2 1.34932e+06 71509.8 -196055 -35806.3 
16 1 32.4766 23.5957 -0.88666 0.521439 70210.6 46323 1.16677e+06 -55817.3 -239257 -56573.7 
15 1 34.349 22.0249 -0.746994 15.1987 1.01306e+06 208824 1.55123e+06 -88700.2 96624 -218496 
77 1 32.4876 21.8814 1.15068 18.9862 1.00776e+06 371840 1.81165e+06 -269226 19959.2 7896.93 
2724 1 36.0716 23.6969 -0.812246 0.27968 -101285 -852631 569615 -209459 387343 -177335 
2721 1 36.0777 21.9472 -2.68599 18.1855 1.92462e+06 739756 1.97573e+06 -84496.5 125914 -11111.4 
19 1 23.9749 25.6938 -0.627099 0.689821 -149483 -29008.4 776364 -168062 108388 323319 
20 1 22.0764 27.2657 -0.75878 15.2883 465301 1.51406e+06 1.94058e+06 99261.4 1883.96 -11351.7 
17 1 22.0178 25.5099 -2.64037 15.117 630558 1.43859e+06 1.59189e+06 -50448.4 36520 -344536 
23 1 27.3967 25.5723 -0.786739 0.350797 -652187 -1.00353e+06 283362 -715725 53219.7 213447 
24 1 25.5457 27.5216 -0.592728 1.01799 -43673.8 -423316 838751 -1.11057e+06 185051 378495 
22 1 27.2841 27.3219 -2.68568 0.262189 -329890 -239217 875666 -853317 -166825 352686 
27 1 30.7816 25.4699 -0.772098 0.119987 482331 535380 860804 -334200 -57929.1 61205.5 
28 1 28.9118 27.3058 -0.719163 0.845423 -151180 -326984 1.0355e+06 -591288 -237.741 -126789 
26 1 30.8609 27.3157 -2.57585 0.35884 -10586.5 -567294 667190 235360 1384.54 -4068.93 
32 1 32.618 27.1657 -0.662697 0.41097 -61602.5 211009 525013 -301388 12021 -285953 
31 1 34.3294 25.3543 -0.80368 0.325298 -228715 -1124.42 822295 163323 -48874.4 -93817.5 
93 1 32.5769 25.2886 1.17671 0.462922 -130338 -348279 804721 481360 -117124 259679 
2742 1 35.9731 27.1372 -0.728014 0.227555 -960075 -586077 -24585.6 229949 95771.4 -15751.8 
30 1 34.3099 27.2789 -2.60368 0.364432 -305701 202099 371665 -283696 -565197 -188880 
2811 1 36.0045 25.2834 1.09659 0.701891 -78057.3 97635.9 698111 704388 -208675 -103510 
35 1 23.6733 29.1532 -0.771486 0.866998 128429 630279 1.01238e+06 5944.04 290321 280479 
36 1 21.9678 31.0359 -0.835998 15.581 393869 1.41445e+06 1.973e+06 -252078 152477 169892 
34 1 23.7917 30.8258 -2.63758 0.264165 -121496 -49680.5 835328 -294668 164346 49863 
39 1 27.2711 29.0814 -0.566827 0.285855 -653240 -384502 1.03413e+06 -244165 -98840.7 56518.8 
40 1 25.5727 30.8804 -0.575523 0.313074 -38960.6 1020.44 850741 176219 379284 -187420 
38 1 27.2936 30.7962 -2.62916 0.164045 -1.04983e+06 -780898 468107 107269 21165.7 113967 
37 1 25.5145 29.1141 -2.51023 0.703739 348038 189045 995281 170279 138477 404550 
43 1 30.7909 29.0314 -0.710245 0.199885 392629 343580 617166 -83626.3 10735.3 18792.1 
44 1 29.1272 30.8893 -0.705627 0.280186 -26408 -7829.1 878799 192014 165666 -146101 
42 1 30.7553 30.7891 -2.66698 0.308785 -305215 -15316.9 202682 26885.2 -52658.8 -292915 
41 1 28.9958 29.158 -2.6036 0.429513 -571566 -444630 340157 -74758.3 -71408.5 121048 
47 1 34.3197 28.9439 -0.718129 0.219314 38352.9 63435 -15403.8 -9292.7 359991 -135028 
48 1 32.4927 30.8537 -0.775463 0.491049 -337499 -511315 830990 -368362 -242780 -127188 
109 1 32.6671 29.0096 1.09962 0.561315 106164 176501 494898 -486880 6717.83 -272482 
110 1 34.2846 30.8125 1.15345 0.235118 -324949 -388900 490776 -320174 353538 319596 
2760 1 36.0867 30.8624 -0.704868 0.639394 -343813 -117962 -140474 -76326.1 177420 -87591.4 
2757 1 36.0248 28.9383 -2.65933 0.280248 -792631 -751802 848529 450120 158880 29172.2 
45 1 32.5587 29.1015 -2.68708 0.350848 -251643 -368333 593501 -295410 -168250 -187605 
46 1 34.4203 30.6621 -2.62066 0.983002 -566427 -420900 634923 -196441 -159650 -80101.3 
51 1 23.8217 32.5872 -0.728785 0.520921 -330395 -38106.1 612203 -153291 -106801 366873 
52 1 22.0857 34.4574 -0.611736 15.7445 203612 1.33547e+06 1.47146e+06 -361735 -205402 5796.24 
49 1 22.0789 32.8224 -2.63597 15.3305 -255987 892011 1.17369e+06 -710766 -185698 369346 
50 1 23.8741 34.283 -2.5565 0.680394 -1.25489e+06 -823200 870706 -613454 -84303.3 189043 
1281 1 22.1962 36.1058 -2.58474 13.6929 129669 863218 754555 -185753 -119041 307566 
1285 1 25.422 36.113 -2.62521 0.414053 142725 -87777.1 1.27291e+06 -256307 16919.5 61377.6 
1287 1 27.2731 36.0853 -0.686373 0.183225 -64015.5 -729924 739912 -551710 32753.5 -97879.6 
55 1 27.3624 32.5487 -0.686548 0.315736 -51109.1 -114561 807643 -270900 195157 -86590.2 
56 1 25.5262 34.4123 -0.644166 0.247096 -1286.34 39927.8 -14796.1 -486321 -199482 110760 
118 1 27.3594 34.3536 1.15886 0.34436 -208620 67963.3 542186 -482996 -10521.4 -14636 
54 1 27.2474 34.4054 -2.49035 0.872861 510554 236964 808325 98119.8 135765 -133767 
53 1 25.5448 32.5368 -2.58861 0.119782 -153624 -34522 883288 259166 208059 37385.2 
59 1 30.846 32.5868 -0.760514 0.26067 -222697 -778361 544329 396163 16334.1 109116 
60 1 29.091 34.2834 -0.691382 0.140668 -510678 416912 688180 -63981.1 197772 -3558.61 
1291 1 30.8299 36.1164 -0.778254 0.190304 180976 305934 791270 -125437 -113666 -120803 
122 1 30.8617 34.2683 1.16186 0.305169 -426439 -744843 964948 -194067 -161405 -81784.6 
58 1 30.7277 34.2165 -2.60578 1.00657 126849 326426 434491 100800 -159140 234663 
1289 1 29.0804 36.1441 -2.67563 0.276847 381992 474480 653718 243777 -130235 -136495 
1293 1 32.6185 36.0152 -2.68227 0.440634 -436449 -698515 -65505.5 345301 67582.3 366593 
63 1 34.1973 32.4774 -0.676587 0.853309 -730217 -559111 70441.6 38711.6 79079 174940 
64 1 32.6818 34.3725 -0.854589 0.846287 -218734 -774446 139157 -82388.3 -182513 95511.8 
2847 1 36.043 32.5291 1.15752 0.242893 198190 318903 615305 -427297 54533 -328893 
1295 1 34.2806 36.119 -0.660968 0.488978 -610368 -927721 456639 -86932.5 -260031 9362.29 
2778 1 36.013 34.3299 -0.761103 0.103084 154619 253069 401651 185924 -13801.4 -154412 
4242 1 36.0465 36.1428 1.16005 0.211845 -418410 -624564 292287 291051 -154144 -209032 
125 1 32.5231 32.5899 1.1923 0.214365 -773120 -572761 486099 180824 221829 130911 
126 1 34.2395 34.364 1.18668 0.319708 -114843 -312242 412697 235576 -22057.5 -14092.5 
2775 1 35.9412 32.5441 -2.58059 0.640195 -344377 -949721 580283 279105 138503 -38528.3 
65 1 22.7087 22.01 1.26939 27.506 1.00339e+06 921083 1.69002e+06 -232405 96325.5 -52370.9 
66 1 24.0459 24.0046 1.21082 1.19193 -946388 -1.55429e+06 552134 169661 153931 -184416 
67 1 24.1925 22.0014 3.36472 17.8095 946607 467387 1.01773e+06 -595859 -236460 -325650 
68 1 22.2342 23.8025 3.18085 16.3466 792854 858870 1.59435e+06 -604111 45154.3 31913.5 
69 1 25.4718 22.1094 1.19614 12.7102 1.22442e+06 -207287 1.43856e+06 171663 156981 118467 
71 1 27.32 21.9369 3.094 16.9941 937337 44558.2 1.41091e+06 -354891 253686 -53206 
72 1 25.7452 23.8409 3.23102 0.466018 132180 -426584 1.28702e+06 -478452 243285 -110872 
75 1 30.797 22.0022 3.16486 15.6703 1.33797e+06 202946 1.79794e+06 -545653 -10516 93945 
76 1 28.876 23.7021 3.28425 1.06067 321790 -665994 1.05403e+06 -489930 69721.1 -41246.8 
78 1 34.146 23.5972 1.21225 0.532647 -527117 -1.12166e+06 1.17976e+06 594503 27709.9 -183177 
2793 1 36.0519 22.0685 1.23645 15.4996 1.16488e+06 546794 1.66495e+06 123933 -42985.6 -3792.29 
2865 1 36.0968 21.793 5.03772 19.9679 1.45598e+06 729856 1.91645e+06 186329 105346 130509 
80 1 32.4131 23.7044 3.17117 0.310799 -631669 -752568 939526 -299307 235634 271000 
79 1 34.1737 21.9484 3.26477 15.4866 1.2602e+06 370223 1.09385e+06 94252.4 270691 -349935 
2796 1 36.0273 23.7154 3.26716 0.553288 149649 141807 1.12059e+06 58736.4 71942 -1939.43 
81 1 22.2729 25.6129 1.30562 14.9875 -523942 60993.9 436759 -70127.1 -151471 -503792 
82 1 23.811 27.4425 1.27913 0.580253 -756491 -157296 621552 -696350 221624 -238651 
83 1 23.9317 25.5294 3.14981 0.305795 -997025 -470580 561154 -726160 -201741 -492710 
84 1 22.1793 27.3231 3.23692 16.4859 568777 1.59912e+06 1.46819e+06 53290.9 58664.2 -213910 
86 1 27.4333 27.3817 1.38418 0.807904 -809158 -495826 202778 -368895 -233421 237295 
85 1 25.7814 25.6531 1.20537 0.821529 -250658 -488054 321722 -702183 -139765 -347223 
87 1 27.3416 25.6128 3.26673 0.629986 -1.19091e+06 -863078 480306 17205.8 -292057 97673.1 
88 1 25.5645 27.1925 3.17426 0.987697 -177498 -642664 430512 -22595.2 54237 -21191.9 
90 1 30.865 27.2703 1.19482 0.260185 520650 620867 752543 38980.7 108313 96519 
89 1 29.0102 25.4585 1.26813 0.384144 157680 218553 748638 160930 -355672 -192783 
91 1 30.7007 25.3861 3.09574 0.487555 -273055 -151822 610253 328867 -56600.6 126090 
92 1 29.1108 27.2784 3.11754 0.243924 -726388 -377520 100730 -216735 -296522 195147 
153 1 29.0515 25.5332 5.05584 0.500052 -399980 -418432 514292 200469 -54359.1 -141275 
94 1 34.3497 27.0597 1.19285 0.331163 -175940 15355.3 230152 53449.5 -146995 -143847 
2814 1 35.9825 27.168 3.10932 0.20899 45925.9 287220 805532 215745 -227146 312545 
95 1 34.2272 25.3594 3.20688 0.215525 -16654.3 117062 1.17845e+06 230726 -172697 5941.38 
96 1 32.5097 27.103 3.09033 0.337837 320812 694765 1.09914e+06 -3590.65 -154956 -67265.7 
97 1 22.106 29.1737 1.33528 16.3009 9115.71 1.31081e+06 1.85284e+06 -156536 114680 -38844 
98 1 23.8107 30.8575 1.19555 0.539493 -231533 355909 1.04519e+06 -190623 300475 206495 
99 1 23.9129 29.1867 3.21525 0.598003 -763697 12004.3 95799.9 -402348 230251 -419393 
100 1 22.0759 30.8562 3.3075 16.6065 491805 1.18197e+06 1.36964e+06 71194.9 -176808 137834 
102 1 27.4551 30.848 1.39631 0.556627 43619.4 -118953 259558 -145431 20580.6 -294025 
101 1 25.5792 29.0638 1.45812 0.809073 -266687 -315067 136565 -105401 527992 -459855 
103 1 27.4303 29.1325 3.29711 0.463802 224358 -817884 -236649 -79465.5 -177390 -331407 
104 1 25.5791 30.8621 3.13989 0.34112 -623591 -698862 492473 -763791 280059 -542940 
166 1 27.4485 30.7828 5.04962 0.551146 297568 -327502 42691.8 423158 75133.8 -53623.1 
105 1 29.1679 29.0937 1.2579 0.245841 -629673 -415709 397740 -206434 -168294 21794.8 
106 1 30.8565 30.8376 1.32932 0.362809 -644798 -530843 478506 -338182 -98364.7 143830 
107 1 30.7886 29.0695 3.14257 0.243383 -15963.8 -148735 543872 145375 -423410 169963 
108 1 29.1659 30.8068 3.23732 0.155031 -1.50957e+06 -781813 -578901 148292 -125258 176170 
111 1 34.2853 28.8937 3.04556 0.405965 -61555.4 189673 931217 193767 66939.9 -2122.92 
112 1 32.6425 30.8234 3.05234 0.534045 202434 455244 762271 -133924 -137789 202093 
2832 1 35.9703 30.7153 3.2735 0.821551 223692 10809.7 316404 -50187.1 -316805 -334613 
173 1 32.5203 28.9974 5.05293 0.114002 171828 311550 1.14848e+06 -469288 -233371 74737.8 
2829 1 35.9954 28.9518 1.22139 0.182748 -300627 137464 461023 -283649 56218.9 84723.5 
1355 1 23.8578 36.0577 3.25582 0.540272 68526.5 194632 217062 -144949 118558 289133 
114 1 23.6415 34.3066 1.3676 0.988286 228771 424866 985989 -107593 -145499 166651 
113 1 21.997 32.5091 1.42733 15.4441 348162 1.25254e+06 1.82426e+06 -85099.1 -188828 147683 
115 1 23.8295 32.6673 3.24201 0.278659 105499 259781 598314 -103829 -166793 112595 
116 1 21.9608 34.4029 3.31992 18.9198 151611 1.49156e+06 1.32336e+06 -16761.3 -224043 82974.7 
178 1 23.7463 34.413 5.03504 0.581211 -442657 -469038 65346.2 -407646 -243997 257826 
117 1 25.6029 32.6881 1.20681 0.446571 414717 190927 621193 -383524 12527.1 -93012.5 
1357 1 25.5092 36.1091 1.29484 0.277015 246518 673267 680486 410660 67170.6 -132741 
119 1 27.3462 32.4984 3.20597 0.419953 -362367 -591579 296388 -208476 150970 -271852 
120 1 25.6793 34.3477 3.19795 0.475647 24675.5 -152545 643832 -93130.1 -139838 -9883.21 
182 1 27.338 34.4147 5.06516 0.224218 -303801 220923 485895 192607 -191295 1413.02 
1363 1 30.8825 36.0869 3.15823 0.214419 12130.6 395677 764998 70841 28511.3 64539.5 
121 1 29.1727 32.5513 1.36549 0.442982 -514188 -728212 381649 -324586 -27022.4 -26890.3 
123 1 30.8755 32.641 3.21657 0.218805 -122615 38666.7 445228 -167302 -138798 112052 
124 1 29.0384 34.3129 3.1552 0.270681 372108 32217.9 606212 82041.7 130469 3780.31 
1361 1 29.1102 36.1078 1.28928 0.311246 457196 434788 839994 -377853 83133.4 82083.2 
1365 1 32.5231 36.0022 1.20685 0.359249 -800118 -485165 472314 252305 145595 -23915.1 
1367 1 34.2744 35.9823 3.1249 0.603794 -999601 -1.15671e+06 87970.7 -176897 50836.8 226864 
2850 1 36.1219 34.384 3.10474 0.316398 -431398 -249846 422994 237572 194613 -156252 
128 1 32.6043 34.3763 3.25647 0.331143 -1.52768e+06 -912200 375086 -338257 -379979 155370 
127 1 34.31 32.6323 3.169 0.325523 -48949.7 74303.6 798742 48942.5 -412924 -179902 
190 1 34.2171 34.3819 5.01804 0.542332 -84911.1 -171771 47032 -219539 -340704 130581 
2919 1 35.9851 32.4897 4.96674 0.757725 -157116 -314937 208707 449467 -185279 -42504.2 
4323 1 36.1122 36.0697 4.9989 0.244293 200685 -381596 493504 190651 -128096 -201316 
129 1 22.2445 22.2742 5.15238 30.2778 833138 774662 1.355e+06 -253391 12558.4 -120544 
130 1 24.181 23.6851 5.22321 1.42022 -492471 -687137 717678 -325580 53340.7 -186120 
131 1 24.1134 21.8834 7.05239 19.9554 552767 182513 654244 -191558 548869 161447 
132 1 22.3701 23.6897 7.17712 17.9325 359682 239920 756840 -382940 -342585 -79262.7 
193 1 22.6543 21.9253 8.95552 29.4598 609362 375577 1.10052e+06 -277659 305037 243033 
133 1 25.7835 21.8658 5.22101 17.3689 499173 167456 823738 129944 -321465 10456.7 
134 1 27.4065 23.6963 5.35215 1.16837 -197999 -1.04134e+06 292665 238482 -123324 -244115 
135 1 27.2261 22.0472 7.27347 13.6211 1.26201e+06 -90993.1 999520 79712.3 -267227 -126497 
136 1 25.5736 23.8411 7.34458 1.1828 -406228 -430196 336530 -158116 -528210 -99588.9 
138 1 30.775 23.8029 5.12256 0.485334 -123320 128428 710436 -170614 139727 749.178 
137 1 28.9662 21.9562 5.15106 15.9649 1.46105e+06 -44402.2 1.64518e+06 660126 -42336 -9526.38 
139 1 30.8241 21.7971 7.0599 19.1118 1.6468e+06 921100 2.00836e+06 -153993 -26390.2 44539.9 
140 1 29.0898 23.6695 7.11248 0.39868 338479 311000 1.03824e+06 -310636 -354117 -194075 
141 1 32.5056 21.9116 5.12492 17.3856 938173 364475 1.11334e+06 -308926 279054 -168773 
142 1 34.3222 23.5311 5.13233 0.580635 614397 122022 675521 -147558 331207 -368405 
144 1 32.5267 23.6161 7.00994 0.45418 60209.5 -572756 573475 -148635 -299937 145889 
143 1 34.2339 21.8634 7.16869 16.9579 1.4787e+06 339514 1.30421e+06 367900 -223514 -288505 
206 1 34.2304 23.6011 8.92915 0.392938 51737.9 -606768 666954 263711 -341202 -107111 
2937 1 36.0325 21.9729 8.93872 17.2215 1.05611e+06 102929 1.25338e+06 298261 -208527 -50496.9 
145 1 22.3236 25.3141 5.17475 12.2322 123754 1.15262e+06 986192 -270910 -177268 -107146 
146 1 23.8267 27.1834 5.2113 0.746294 -613157 -295666 855214 -158678 68147 -36709.4 
147 1 23.8011 25.6441 7.22697 0.881257 -269011 -281954 255798 -270818 -297355 204977 
148 1 22.0037 27.3331 6.9697 18.1091 324944 1.17969e+06 1.44887e+06 18951.6 171293 458255 
150 1 27.4794 27.396 5.11204 0.742697 -399418 -621609 204053 47488.4 -73794.7 -188827 
149 1 25.6637 25.5831 5.23833 0.476696 58472.9 -76859.6 524157 -76280.7 -391809 -127976 
151 1 27.3111 25.4788 7.03271 0.495813 -452073 -543114 385427 -174770 -265444 -449388 
152 1 25.6883 27.3009 7.13675 0.400704 233545 -204911 314850 37869.1 -225210 -106778 
214 1 27.4127 27.308 8.9553 0.186183 -217464 422518 455450 -182987 116631 -124784 
154 1 30.8432 27.2222 5.07828 0.229768 58172.1 124796 1.11218e+06 -219680 -41280.3 -34124.1 
155 1 30.8038 25.479 7.1762 0.299836 19220.4 271780 681431 -71803.4 273639 -320932 
156 1 29.0475 27.2479 7.06136 0.237869 -222653 -34561 487424 61220.8 -47398.9 144558 
2955 1 36.1017 25.4377 8.91496 0.198059 80522.6 212079 938221 474678 120617 -106575 
157 1 32.5245 25.4235 5.24222 0.572604 -376993 -112664 712196 -535627 -72738.6 97495.4 
2886 1 36.0304 27.295 7.09225 0.443826 255458 133002 643484 402548 111757 -21759.9 
158 1 34.285 27.173 5.09684 0.114716 13311.4 85239.9 1.07984e+06 282672 122551 -93600 
160 1 32.5566 27.2438 7.05789 0.132261 86166.9 34615.5 705524 -226116 -13556.8 -67290.7 
159 1 34.2324 25.3453 7.06474 0.396568 167522 341760 361296 -74973.3 -209593 2708.85 
222 1 34.325 27.1179 8.92888 0.451089 217125 401876 967084 -135701 158675 23153.3 
2883 1 36.0477 25.5686 5.16086 0.778605 -194340 106546 795303 344983 -225028 62545.6 
161 1 22.1506 29.042 5.23362 16.0599 102089 695478 708148 -127373 -452735 261048 
162 1 23.8936 30.8017 5.12367 0.289772 -306792 -241184 502939 -169009 -70478.4 -32102.3 
163 1 23.8112 29.0743 6.99938 0.16093 -271268 515636 236977 -223089 -563884 144102 
164 1 22.0424 30.9205 6.99988 16.756 372233 928955 1.08293e+06 -249650 -132676 189213 
226 1 23.7136 30.918 8.91894 0.595021 -734876 -298306 1.04116e+06 -62659.2 -187154 -199698 
165 1 25.543 28.9696 5.12046 0.561821 96197.5 471815 840807 324012 -54856.2 16050.5 
167 1 27.4221 29.0932 6.97622 0.326048 -295495 -729886 426687 -263387 194084 -128744 
168 1 25.5884 30.8297 7.08945 0.159523 308311 180085 690545 -512338 -308490 300241 
229 1 25.5332 29.0928 8.91632 0.314192 801016 68254.3 566457 -352445 -89320.4 84232.5 
170 1 30.8239 30.9008 5.09927 0.244926 23037.7 -224641 806558 -295594 -410314 17767.6 
169 1 29.1707 29.1032 5.19725 0.388797 -1.25804e+06 -684389 -93876.3 -179631 -217919 200057 
171 1 30.7887 29.0191 7.0235 0.151854 -316289 124722 351118 -138051 -274601 -116182 
172 1 29.0552 30.8334 7.11895 0.261221 -346989 -552128 312163 -341699 24144.5 21132.9 
2904 1 36.0768 30.9205 6.93084 0.603157 -260088 -65562.2 690715 338550 37355.9 23491.9 
174 1 34.239 30.7256 5.16325 0.55238 -70989.8 82115.7 777691 -275811 59018 309316 
175 1 34.252 29.0148 6.97555 0.22404 319400 54045.2 770170 254138 -87661.4 173673 
176 1 32.5094 30.7772 7.12183 0.32174 -294905 107313 208728 116908 -165316 1587.75 
2901 1 36.0516 28.98 5.10154 0.200078 395616 335838 705880 -211852 -34706.6 326435 
238 1 34.2415 30.8839 8.8387 0.674038 150277 206567 677601 104296 -302552 294140 
1427 1 23.7893 36.091 7.12492 0.571429 -439794 -2422.35 868782 203275 -7664.89 -75150.8 
177 1 22.1436 32.6262 5.25954 15.189 -227187 340418 334483 -277176 -195776 137755 
179 1 23.7455 32.6893 7.07536 0.400768 -494556 253052 751467 -529047 -432891 250178 
180 1 22.0002 34.4267 6.98508 17.6192 344181 1.02314e+06 1.64143e+06 -12556.8 103871 -241652 
1429 1 25.5776 36.118 5.15408 0.150915 -6046.72 -251547 765219 195458 -261091 147379 
181 1 25.6041 32.5595 5.12241 0.16814 603714 334113 418290 -364388 -85641.3 -182642 
183 1 27.2648 32.5807 7.13446 0.231637 -91155.6 -216391 1.07457e+06 -390676 -165547 251453 
184 1 25.5107 34.3379 6.93975 0.74274 469161 -14929.4 1.32767e+06 78933.1 57031.9 123178 
186 1 30.8677 34.4712 5.18992 0.320253 556220 144642 764530 -256626 -227357 32659.2 
185 1 29.1197 32.6743 5.15666 0.269961 170224 113453 894663 150915 -216005 -30438.5 
188 1 28.9021 34.372 7.13748 0.782824 193878 56258.1 907097 342856 -214988 -171758 
187 1 30.7853 32.6143 7.10924 0.183584 86087.2 500066 508710 -44913.6 -95021.5 31837.1 
250 1 30.7348 34.5276 8.95819 0.774015 -35652.9 -77722.5 413187 431319 -136654 122260 
4404 1 36.0902 36.0106 8.90522 0.376365 20543.7 41401.1 637243 -130393 55611.1 175200 
2922 1 36.0649 34.2755 7.05095 0.255207 -338150 -358255 918916 -408630 414080 1236.64 
189 1 32.5745 32.6042 5.26083 0.561993 18895.7 -112760 882055 -435851 -96530.5 51597.1 
191 1 34.3608 32.6031 7.08586 0.503445 -425128 -617213 89896.1 -65118.3 -160934 19053.3 
192 1 32.5838 34.4666 7.03 0.220385 -471873 -398297 222109 153619 -328941 -13432.7 
254 1 34.3135 34.3387 8.88494 0.254143 -743996 -628050 80029.9 -49501.4 7551.25 -227891 
253 1 32.5327 32.6408 8.92156 0.17736 -186831 -66240.1 266099 -92614.6 139012 -106195 
194 1 23.7999 23.9959 9.16409 1.6461 -1.53296e+06 -769310 -473505 -221454 53485.3 105051 
195 1 23.9265 22.2423 11.2252 17.0725 -291450 -604682 939699 -807130 499962 -57002 
196 1 22.1697 23.9539 10.9102 18.4961 78692.6 65766.7 -800615 -3766.48 647789 842447 
198 1 27.2277 23.7433 9.10184 0.183713 339059 198079 399813 16687.6 -595332 -319869 
197 1 25.3296 22.0225 9.24284 12.3514 1.08572e+06 292977 645276 41874.5 147458 -126357 
199 1 27.1975 22.0241 11.0752 15.7822 1.38367e+06 507922 1.57306e+06 -91088.5 -42347.1 64829.2 
200 1 25.4795 23.8873 11.0358 0.382798 -631219 -923356 529548 -1.03491e+06 284023 -224091 
202 1 30.8758 23.6544 9.23615 0.905864 -357941 -1.10024e+06 869028 509109 36322.2 154813 
201 1 29.0491 21.9648 9.15002 17.2485 1.45573e+06 583515 1.706e+06 -184972 -171539 -116056 
203 1 30.8791 21.9679 11.0358 15.9607 965930 -267156 710402 -368529 25312.4 78234.3 
204 1 29.0296 23.7027 11.025 0.129929 152950 -58136.7 891486 -98869.9 10925.4 -155175 
2940 1 35.9741 23.5616 10.8836 0.762726 423865 337239 1.09242e+06 299113 -117783 -197171 
205 1 32.4454 21.9839 9.06037 14.6605 50834.7 -480940 906938 450529 279753 -3409.81 
208 1 32.568 23.6678 11.1187 0.544849 -929918 -1.0552e+06 514435 -231070 -115481 -113517 
207 1 34.1644 21.9162 10.9808 16.1415 1.16806e+06 -20382.6 1.80418e+06 202861 -82596.6 -142161 
210 1 23.761 27.3742 9.00286 0.289965 99692.8 -159949 614487 264015 -79503.7 -134723 
209 1 21.9495 25.5323 9.01428 19.9695 209960 1.0672e+06 1.41933e+06 380225 81624.5 236668 
211 1 23.8692 25.8162 10.9503 1.22794 -346500 -197094 18003.3 158463 115301 -325511 
212 1 21.9154 27.254 11.0053 18.2356 313033 1.21024e+06 1.22523e+06 288080 -123112 45488.5 
273 1 21.9234 25.4886 12.7934 14.2098 550655 1.23759e+06 1.28415e+06 42848.8 84745.7 -53609.7 
213 1 25.5988 25.6841 9.08861 0.25892 -293047 -492236 43202.1 -330562 31357.8 -195967 
215 1 27.3268 25.5295 11.0366 0.160223 -44385.2 165545 756546 -158600 29060.2 -241501 
216 1 25.7048 27.4549 10.8618 0.9586 180258 9772.88 657266 -250316 -63323.6 -215408 
278 1 27.4331 27.3261 12.8315 0.305594 -144041 -233258 575424 -361821 -319590 79203.6 
218 1 30.8232 27.2502 9.02059 0.0581926 -252938 -210230 427167 -510626 219624 -234463 
217 1 29.1099 25.4547 9.02361 0.157311 287850 262254 580561 -82491.8 117046 -215406 
219 1 30.8029 25.4484 11.0097 0.109494 -295751 -466845 344372 324057 -110349 -327751 
220 1 29.1729 27.1933 10.8769 0.414547 -428606 -394957 427934 370115 194377 -229876 
282 1 30.9211 27.2569 12.7838 0.570325 -644059 -450046 -233701 364841 -344672 97823.4 
221 1 32.5575 25.422 9.00295 0.103526 -348876 224044 792408 -220032 -154006 38795.3 
223 1 34.2638 25.3877 10.8901 0.321312 316320 369413 1.28294e+06 -293089 -90877.4 84561 
224 1 32.5655 27.2786 10.953 0.186236 -245674 99359.2 430462 -245959 85785.2 357816 
2958 1 36.0572 27.1132 10.9966 0.737862 620511 713849 936393 228530 128321 209919 
286 1 34.2926 27.2935 12.8163 0.161025 396414 426627 454118 -613560 219741 241884 
225 1 22.0587 29.1168 9.08951 16.2344 276091 1.37341e+06 1.83054e+06 55368.1 -187878 -64032.1 
227 1 23.7502 29.0599 10.9686 0.106551 189882 1.14226e+06 1.14028e+06 -130061 -136473 -198308 
228 1 21.8631 30.7908 11.0251 18.8521 908102 1.4465e+06 1.82889e+06 16810.1 -81187.5 -90024 
230 1 27.3143 30.8607 8.96308 0.126994 -300119 130460 354496 91645 49975.4 259473 
231 1 27.5519 29.0968 10.9448 0.960567 -316381 -292714 385565 -762684 -202684 74925.1 
232 1 25.5664 30.7581 10.8819 0.336361 780650 410207 977885 -152732 111501 33892.1 
234 1 30.8359 30.7646 9.00388 0.216815 -926796 -918741 29022 -352629 165845 37320.1 
233 1 29.148 29.1654 8.9735 0.401141 -600913 -467259 74418.9 -550831 139436 84034.5 
235 1 30.8269 29.0793 10.9077 0.178193 -395102 -182012 -34832 23086.7 170103 271012 
236 1 29.0959 30.8495 10.8903 0.181129 -235127 -771564 451860 -471825 274634 -5929.18 
297 1 29.1069 29.0632 12.8038 0.237019 -440976 87508.3 169296 -1373.79 -371111 167057 
2976 1 36.029 30.8804 10.8994 0.179157 453192 126484 1.11321e+06 -104349 -60203.1 52689.2 
2973 1 35.9968 29.0461 8.98206 0.22646 956150 1.0543e+06 1.44699e+06 7441.56 -71639.9 -340577 
237 1 32.4767 28.9885 9.05973 0.385526 79617.5 -113017 511102 -89956.6 209357 151365 
240 1 32.5696 30.8376 10.9245 0.132172 167447 -179582 798492 95465.7 -117357 246738 
239 1 34.2772 28.9835 10.9822 0.385411 402161 503313 1.13103e+06 -280943 -190428 316237 
3045 1 36.0374 29.0916 12.8233 0.302777 124719 329772 729900 -348588 -36516.7 -188216 
242 1 23.7522 34.4158 9.10279 0.22657 769698 828280 1.45202e+06 242770 -38017.7 22355 
241 1 22.0223 32.5378 9.06521 16.603 64606.1 1.28012e+06 1.81104e+06 595367 -95129.4 -131487 
1569 1 22.2368 36.0867 12.8392 15.1191 -222260 555249 352497 158394 392042 -436890 
243 1 23.7546 32.4895 10.935 0.346966 152744 863929 502553 57396.9 21006.8 -85065.2 
244 1 22.0106 34.4116 11.0809 19.1626 650090 1.27384e+06 1.28956e+06 -182017 -38562.6 -420582 
1503 1 27.2261 36.0943 11.0061 0.366419 167570 594901 391474 -198590 91071.4 -69113.3 
246 1 27.2549 34.3327 9.12087 0.292036 187416 147910 664501 -74298.4 163538 -43554.1 
245 1 25.5025 32.5506 9.10713 0.377202 -14580.6 67736.6 847684 -264342 152299 858.672 
309 1 25.5033 32.5107 12.8421 0.398208 203832 174223 958480 41330.9 79529.2 133726 
247 1 27.2884 32.6171 11.0087 0.160658 -209691 -165045 523225 7217.7 -26315.8 71078.7 
248 1 25.5283 34.3493 11.0433 0.120811 -105386 36284.3 477077 -50233.9 236693 14456.9 
1505 1 28.9966 36.1126 9.07278 0.295276 44325.3 18988.4 912680 613548 -100360 -181538 
1507 1 30.8486 36.1305 10.9501 0.136496 54653.3 41599.4 885600 535900 -270466 -224635 
249 1 29.0973 32.6145 9.04225 0.196815 170859 91809.6 343149 -62899.9 -82551.8 58034.9 
251 1 30.9061 32.608 10.8258 0.71171 77418.5 277704 1.14491e+06 -37482.6 2742.68 6262.81 
252 1 29.0191 34.3326 10.9599 0.180819 278106 406399 795453 -191819 -30048.6 45180 
2991 1 36.0575 32.6086 8.98537 0.141873 252860 227092 274857 38666.4 -28419.9 92338.2 
1581 1 32.5651 36.0407 12.833 0.318196 -595269 -5208.24 650236 363183 -414486 -18714.4 
3063 1 36.0781 32.6483 12.8406 0.175422 -311287 -208085 581270 -329213 27088.9 -212042 
318 1 34.3154 34.4255 12.7303 0.599668 -686182 -988965 117061 -36444.8 176965 -112554 
256 1 32.5476 34.4227 10.8156 0.423249 -484048 -620908 704116 -66417.2 -277429 -131760 
255 1 34.2922 32.6601 10.8845 0.0942485 -120889 -158047 670905 -51125.4 155899 -50493.1 
2994 1 35.9992 34.3899 10.8852 0.275537 -823398 -667715 278632 206338 158187 76426.7 
1511 1 34.3697 36.0347 10.8965 0.365851 -728538 -937813 65185.5 619264 -216550 239688 
258 1 23.9625 24.0595 13.0025 1.39038 -1.3171e+06 -1.08185e+06 193764 -1.67549e+06 255874 -399072 
257 1 22.0444 22.7409 12.8769 27.9539 -116833 146021 -255023 -568686 36806.6 450344 
259 1 23.7544 22.2118 14.7384 18.0794 351798 419392 1.2409e+06 -10744.2 208141 169527 
260 1 22.1244 24.0391 15.0122 14.3164 -182865 -79.0154 1.10906e+06 -656936 -4860.2 -521979 
262 1 27.2586 23.8043 13.0623 0.421279 303057 -237343 806605 -244366 131372 -273009 
261 1 25.6731 21.9655 13.1495 15.4341 1.18312e+06 668107 1.50704e+06 -528458 191591 -197540 
263 1 27.4038 22.0363 15.0934 14.0415 947612 74629.9 566234 -127031 -43706.8 -509345 
264 1 25.6154 23.8494 14.9608 0.420505 -68119.4 -88211.2 -160495 -163050 33435.2 -76609.1 
266 1 30.8309 23.6433 12.902 0.36646 -517624 -733520 323750 666592 226376 -184772 
265 1 28.974 21.9726 12.9908 15.5488 1.5822e+06 478877 1.59402e+06 -22026.2 -39892.1 -64404.8 
267 1 30.7812 21.8839 14.9203 18.8681 1.43036e+06 675690 1.37205e+06 132054 276643 -84942.8 
268 1 29.1382 23.7832 14.8273 0.28485 65368.4 -501595 565917 -273927 -114694 -2614.87 
3009 1 36.1118 21.8744 12.9277 18.8131 1.13266e+06 593210 1.33425e+06 297680 -264739 -83719.1 
3012 1 36.0071 23.7486 14.7649 0.484996 -65533.2 -107524 1.01289e+06 312338 -378139 -75645.2 
269 1 32.4694 21.9989 13.1121 15.2703 444161 -371988 1.03555e+06 463627 65530.5 -45183.1 
270 1 34.3712 23.5959 12.9339 0.481878 301577 499863 602276 1362.92 -397054 -128927 
272 1 32.5895 23.7868 14.8539 0.283503 374865 -78355.2 461769 -95684.9 -47037.7 -370298 
271 1 34.3767 21.8717 14.9166 18.2946 1.74331e+06 685851 1.73059e+06 -210203 -30545.3 40632.5 
274 1 23.7011 27.2593 12.9247 0.611771 -429337 -109257 382050 658132 -2215.86 -206125 
275 1 23.7765 25.6479 14.8743 0.250531 -516618 -766681 403191 -732450 143546 76874.1 
276 1 22.0679 27.4435 14.8828 14.5851 -263060 669824 1.06228e+06 -489463 105290 174509 
277 1 25.574 25.6824 12.8812 0.411621 -904116 -501679 856950 -700963 119685 -211674 
279 1 27.4307 25.6007 14.7788 0.323339 -259705 -121652 242133 -469524 296950 -352441 
280 1 25.5201 27.3949 14.8549 0.279902 534118 94255.6 509806 -51254 -142160 353829 
341 1 25.7072 25.6999 16.6727 0.950321 -156129 -699387 467243 -698329 115707 -164090 
342 1 27.3814 27.3855 16.7083 0.287677 -700200 -590706 124304 -697463 -97008.8 245516 
281 1 29.1185 25.4934 12.9249 0.100688 -373134 64498.7 -163693 86987.8 61313.4 -1653.19 
284 1 29.0826 27.3145 14.7496 0.179844 -1.0081e+06 -861793 446903 -35102.2 -377861 -89990 
283 1 30.8477 25.53 14.7065 0.280567 -633998 -301313 209042 -225272 -59876.8 2955.51 
346 1 30.7279 27.3273 16.6178 0.429463 99720.7 40857 875085 -853.672 -118922 -5208.62 
287 1 34.2881 25.5259 14.8005 0.133529 -69158.4 -18557.5 642605 -191639 -426191 -132559 
285 1 32.5465 25.5502 12.9327 0.324703 -368402 -510637 1347.39 199038 98396.1 -166289 
3030 1 36.0338 27.3333 14.8946 0.857719 270831 197286 430536 -79687.6 89526.2 214542 
288 1 32.4785 27.3625 14.6368 0.483001 -315644 -122431 -319595 -248476 -416888 -351192 