ITEM: TIMESTEP
6200000
ITEM: NUMBER OF ATOMS
5780
ITEM: BOX BOUNDS pp pp pp
1.7311295935265132e+00 7.0568870406489040e+01
1.7311295935265132e+00 7.0568870406489040e+01
-1.6198851564822994e+00 7.3919885156497841e+01
ITEM: ATOMS id type x y z c_csym c_2[1] c_2[2] c_2[3] c_2[4] c_2[5] c_2[6] 
3 1 23.5655 22.2067 0.305637 15.0094 291151 369699 1.28732e+06 -161696 123832 32272.6 
4 1 21.8213 23.9484 0.161373 16.1026 125150 557956 1.50121e+06 -247632 94717 373339 
7 1 27.3048 21.9207 0.354715 17.2395 1.00017e+06 645547 1.30346e+06 -276099 462903 -136436 
8 1 25.4755 23.734 0.277212 0.343431 370549 114785 735914 -559566 78609.2 200061 
69 1 25.4782 22.0034 2.0944 17.2342 1.17569e+06 611922 1.07279e+06 -199398 197951 350012 
11 1 30.8234 21.9661 0.310532 17.4309 1.40177e+06 93156.1 1.14281e+06 -11856.6 143315 65677.4 
12 1 29.0114 23.6926 0.257774 0.147831 317567 -442227 500164 10630.8 24386.6 -93109.5 
9 1 28.8394 22.0349 -1.59703 14.5699 758301 83875.4 822623 308784 120566 -184487 
10 1 30.8574 23.585 -1.57476 0.797371 -47448 -839918 127486 595676 -72573.7 -252674 
16 1 32.6544 23.6812 0.234788 0.226524 -420663 -863291 166479 183880 -32456.9 -85950.1 
15 1 34.4076 22.0496 0.290867 15.8797 593573 85115.7 1.05484e+06 249795 139824 -59221.9 
13 1 32.6066 21.9986 -1.61089 16.9082 292638 -187603 1.14328e+06 263830 216367 -306716 
19 1 23.605 25.5396 0.334256 0.349054 11930.2 -23686.5 853722 -213736 -17392.5 276739 
20 1 21.8707 27.2407 0.336364 14.6535 260469 983248 1.40308e+06 195300 -173852 133689 
18 1 23.7834 27.2415 -1.57367 0.570668 298793 509734 474300 87209 -226652 -3647.44 
23 1 27.2346 25.4928 0.258275 0.218671 309276 171431 703976 -89786.7 -62315.8 107981 
24 1 25.4446 27.2534 0.252459 0.312803 198378 163317 743819 219343 -342654 -15338.9 
22 1 27.3504 27.2818 -1.58201 0.223377 522600 198642 330827 -146890 -294842 75558.9 
27 1 30.8729 25.45 0.222579 0.154864 -112610 540939 383932 221227 -294036 52909.2 
28 1 29.0732 27.2193 0.313363 0.181838 616200 410869 406693 11611.2 -188351 -38328.4 
25 1 29.1464 25.4404 -1.55758 0.627845 -232474 46746.8 75200.9 -374666 188255 -132288 
29 1 32.6288 25.4784 -1.59454 0.237109 29686.7 -8288.23 -62380.5 263109 16487.7 35311.1 
31 1 34.3774 25.4408 0.307696 0.131423 154965 221504 558799 -441583 -18351 -117983 
32 1 32.6206 27.3234 0.23976 0.256669 444221 -62664.9 313326 -211245 48494.4 68511.5 
30 1 34.4806 27.1954 -1.55662 0.257302 188392 -201027 477553 -13876.6 -1506.18 105908 
94 1 34.3543 27.2128 2.14975 0.144277 590025 418103 637504 -273390 61031.4 -34737.7 
93 1 32.5635 25.4596 2.15037 0.165637 301904 533594 760549 -310616 89712.5 -53381.4 
35 1 23.691 28.9721 0.399634 0.665977 169834 422915 688328 348873 119224 -42479.1 
36 1 22.0573 30.9344 0.143541 13.378 -133061 887376 1.12401e+06 -513137 87860.3 318575 
97 1 21.8092 29.1997 2.03463 14.1275 112477 813081 804316 -319110 244544 -393608 
33 1 21.7975 28.8643 -1.5681 14.4403 978066 1.60443e+06 1.41876e+06 173699 81473.7 -76468.9 
39 1 27.2127 29.0766 0.308708 0.233475 -13733.9 381165 239204 171058 -105130 -167359 
40 1 25.5513 30.8644 0.329492 0.503929 -673398 -1.06834e+06 565250 -114767 -54566.2 32174.2 
37 1 25.5334 29.0833 -1.60873 0.293876 -194218 -105284 563858 380222 -136727 239360 
43 1 30.8398 29.1615 0.325327 0.456884 -627981 -208476 -284561 358830 -340051 229465 
44 1 29.0892 30.8464 0.289544 0.155128 -140354 -535327 216971 288517 91867.2 -248125 
105 1 29.024 29.0962 2.07738 0.49326 -491914 -380479 521262 -77244.3 61685.6 90711.8 
42 1 30.8658 30.8407 -1.59583 0.10729 98444.2 250216 319072 -221747 -226002 438102 
41 1 29.0754 29.085 -1.49894 0.618067 29467.2 -390017 497072 69395.3 -230751 159717 
47 1 34.4616 28.9716 0.292573 0.205079 -32749.8 -39608.8 342501 -12828.3 25068.1 22956.2 
48 1 32.7193 30.795 0.13279 1.01308 -31963.3 -283174 -124256 -62701.9 -941.048 334464 
46 1 34.4642 30.7716 -1.61107 0.178015 -426542 -60660.6 302321 316423 495995 -82836.7 
109 1 32.595 29.1066 2.02321 0.68878 -423252 -43791.9 477316 -697.136 -244616 -180952 
45 1 32.6531 28.978 -1.56571 0.248509 520982 72115.4 170876 -39501.2 210907 -25266.5 
51 1 23.7913 32.5131 0.234032 0.413001 -393992 -273838 957597 -456934 141093 131902 
52 1 21.8709 34.2832 0.183792 17.6692 527695 1.4565e+06 1.31375e+06 -151042 249755 15369.9 
113 1 21.8353 32.6284 2.15008 15.8641 -88491.7 1.02145e+06 1.11823e+06 -559367 -396462 -105594 
1353 1 21.9024 35.969 2.13358 15.3608 202807 1.49327e+06 1.0891e+06 51190 -173166 55946.3 
1283 1 23.7131 36.0028 0.346145 0.441117 -605148 -332410 289584 241924 -24492.7 -505769 
50 1 23.6963 34.3113 -1.5507 0.425793 -574327 -11182.2 322739 -103740 -187657 200922 
55 1 27.1701 32.4667 0.196051 0.730024 -806461 -511389 611304 -652327 -385516 15393.1 
56 1 25.5246 34.3177 0.243883 0.316322 -178009 -45477 328223 187446 -288496 157893 
1285 1 25.4555 35.9724 -1.59141 0.522022 -651216 -614830 46543.7 414412 11200.1 44351.2 
60 1 28.9323 34.3254 0.322374 0.445074 621145 -34104.8 492957 -29103.8 -302257 78272.8 
59 1 30.8717 32.552 0.417239 0.577948 282671 350140 590733 -327679 -99303.2 -309038 
122 1 30.8438 34.3483 2.11951 0.260505 169563 -37535.9 82685.5 160539 10992.9 162908 
121 1 28.9479 32.596 2.09579 0.385561 377773 54066.1 187433 -284380 83862.5 187658 
1361 1 29.0606 36.1049 2.147 0.275213 207097 -34128 -151625 252342 220079 -36332.4 
1291 1 30.7329 36.0776 0.292539 0.437682 416395 483238 594889 86191 174095 85938.4 
2778 1 36.1251 34.4727 0.174936 0.351717 -468893 -311000 456175 -556415 -56120.2 -196141 
64 1 32.6553 34.3622 0.324487 0.132507 -221296 341356 430757 515824 -187475 -82697.8 
63 1 34.3952 32.7267 0.315571 0.593144 -226063 -226468 33785.8 119025 -281194 -164696 
2847 1 36.1062 32.6587 2.15606 0.141031 -144536 -21134.1 493634 59345.5 -194153 -402162 
61 1 32.7102 32.5505 -1.5892 0.162257 49020.2 -420777 94228.5 36531.6 -159651 306374 
66 1 23.7436 23.9467 2.21906 0.45504 -267087 -780564 328411 -491333 -50858.3 242671 
65 1 21.946 22.3959 2.17768 27.824 432542 682776 1.04148e+06 -310580 169471 -175230 
67 1 23.8385 22.2053 4.00278 13.5084 53531.8 26132.3 420053 -249220 -141094 337716 
68 1 21.9501 23.7809 4.2523 20.3386 561057 -103824 516481 328318 -105324 -210048 
70 1 27.248 23.8053 2.20686 0.206801 521928 89573.8 731898 -247051 -120463 419306 
71 1 27.131 22.0916 4.03445 15.5071 1.44291e+06 305942 1.25829e+06 -195756 -26708.1 131683 
72 1 25.4431 23.9885 4.15276 0.494179 -757889 -905838 402780 -300250 -162665 378235 
133 1 25.2698 22.0499 5.90323 14.84 1.2691e+06 650902 623411 108281 -39380 94463 
74 1 30.8145 23.6763 2.15971 0.104675 246762 -299337 786169 -6069.42 -122494 -101508 
73 1 29.0455 21.9369 2.23102 18.1874 1.27159e+06 539433 1.43832e+06 -213160 -95132.8 -83634.3 
75 1 30.7294 22.0004 4.20308 16.1169 800474 64034.1 939864 67584.9 233329 -291424 
76 1 28.9991 23.7389 4.09205 0.154106 -150924 -500720 418413 149953 -240991 -126008 
137 1 29.0167 21.8842 5.92826 18.0615 896639 543716 1.12668e+06 -26339.3 327883 29904.3 
77 1 32.6849 22.0111 2.19245 15.1612 896645 86823.2 1.34811e+06 -343817 -126255 -5572.87 
78 1 34.4292 23.6332 2.27328 0.342937 -95851.9 -679586 601870 -620576 -54331.8 -435411 
80 1 32.5302 23.7399 4.11989 0.177931 -619052 -872991 540969 662609 91330.9 -425865 
79 1 34.1879 21.9766 4.26807 13.0644 848936 268015 1.07421e+06 282753 145613 -47348.1 
81 1 21.8893 25.535 2.36178 13.6086 -68272.6 1.30557e+06 1.61615e+06 -60829.5 -141741 174713 
82 1 23.5651 27.3106 2.28361 0.535591 104235 -95209 254993 -355668 -216591 488166 
83 1 23.7436 25.6698 4.07306 0.460449 -398025 -831384 -960580 93513.9 196389 -197316 
84 1 21.6928 27.5584 4.06267 14.5566 666128 1.51556e+06 1.03389e+06 -397171 -71926.2 -461418 
146 1 23.5894 27.2817 5.80892 1.08484 -528912 -417998 -109059 -124517 450418 -380696 
145 1 21.8552 25.5806 5.84972 15.4864 -105848 498467 779166 -112467 351854 -585899 
85 1 25.527 25.641 2.30065 0.413228 30238.1 81859.1 518051 -428089 380242 354901 
86 1 27.2788 27.3527 2.26775 0.259155 -189535 -96323.2 925817 -122210 7541.07 15102.4 
87 1 27.2691 25.5441 4.28089 0.837598 -534331 55430.7 200959 -417515 -348674 61058.6 
88 1 25.4445 27.4602 4.11744 0.340911 -509334 -469665 -455236 -377532 160666 176466 
150 1 27.2953 27.4888 5.9287 0.568693 -132530 -365671 1480.35 -402825 38286.4 57511 
89 1 29.0832 25.4574 2.17027 0.153082 650841 370288 1.11761e+06 -176180 -98609.3 224141 
90 1 30.8343 27.3072 2.20164 0.145334 389429 465326 974856 69989.5 -124302 27159.3 
91 1 30.8696 25.4246 4.12742 0.402493 -629599 -289698 133936 94446.4 -223140 248615 
92 1 29.0618 27.3356 4.10642 0.169193 -62506.7 413287 348030 -220982 -143309 -126659 
154 1 30.8059 27.4061 5.87835 0.363577 -381237 333763 -279368 45252.4 -238973 198228 
95 1 34.4317 25.3775 4.061 0.272068 372458 394320 149429 -195505 81739.6 -272406 
96 1 32.5761 27.2083 4.10625 0.268572 -13858.5 542394 204751 -311093 -303212 -218654 
158 1 34.2484 27.1438 5.89632 0.953897 387.067 317766 280970 185098 -112267 205.252 
98 1 23.6493 30.7767 2.20038 0.196 69214.7 -71970.2 285515 -499652 -83766.7 -95368.8 
99 1 23.6475 29.1355 4.03443 0.231387 -602189 -647275 288921 -142318 98008 122372 
100 1 21.6859 30.6757 3.96406 15.3842 412671 1.20848e+06 909866 103610 78647.7 -220227 
162 1 23.5764 30.8553 5.89628 0.261784 -295159 -806163 -72914.4 -571817 86136.9 188540 
102 1 27.2928 30.7833 2.23075 0.274758 -544007 -656325 27708.7 343119 -193766 -10870.4 
101 1 25.4956 28.9702 2.195 0.381751 -305142 30332.5 -133469 252649 -71166.8 255882 
103 1 27.2581 29.1124 4.08744 0.16798 -639936 -1.13217e+06 -290905 328396 -284179 282830 
104 1 25.4954 30.6815 4.16016 0.737503 -640154 -508368 -5415.1 -57029.4 -74868.1 120829 
106 1 30.8325 30.7613 2.23812 0.494524 38316.1 -780561 -113670 -115165 -150295 -196420 
107 1 30.8044 29.1103 4.08608 0.204466 232918 -224075 -237884 -220008 126910 480829 
108 1 28.9939 30.9487 4.09025 0.415373 -197528 -188520 27642 -240994 -255384 211405 
169 1 29.095 29.2016 5.86393 0.329435 -680498 -731053 -99206.1 -169724 138220 -5072.05 
170 1 30.8254 30.9086 5.90711 0.0763337 -171194 -329417 7967.97 -354421 -31299.8 -9795.21 
110 1 34.3635 30.8163 2.17017 0.189497 -116119 34407 534990 14635.4 205012 35716.3 
111 1 34.3828 29.0525 4.01739 0.135746 280356 322733 779812 162345 325183 34332.5 
112 1 32.6962 30.8332 4.06582 0.368518 -497483 -719996 -247435 -185567 -61028.8 463029 
173 1 32.6421 29.0929 5.84953 0.241795 -242220 -444849 -57843.4 -344485 7027.83 439427 
2832 1 36.1434 30.8558 4.10378 0.102172 366719 302245 911777 -123968 72941.8 -36194.6 
1425 1 21.9008 36.1354 5.88515 17.2969 23102 1.07906e+06 995312 140657 86263.3 291374 
114 1 23.6404 34.1404 2.22397 0.873019 -321660 146958 634045 -250731 -361776 209356 
115 1 23.4725 32.4584 4.03203 0.455278 358155 -55032.5 -352144 -56091.2 -205086 277613 
116 1 21.7407 34.2788 4.04526 18.003 483050 847877 877205 145167 -145747 29959.4 
177 1 21.6384 32.5237 5.87065 18.5493 849324 1.6489e+06 1.59876e+06 115564 124856 309926 
178 1 23.5634 34.3165 5.79498 0.319206 -308938 282341 237336 392463 381668 -17054.2 
117 1 25.4973 32.4491 2.28347 0.74895 -390478 -145174 231350 32491.1 -544725 -331212 
118 1 27.0895 34.359 2.20961 0.550262 201490 95120.4 473438 191330 -223285 146082 
1429 1 25.4411 36.0497 5.85554 0.166345 270240 -474811 53858.2 400871 291645 -140568 
1357 1 25.4133 36.1483 2.17486 0.24249 -192669 -305648 -14395.5 562032 -429474 -199622 
119 1 27.1269 32.6103 4.03747 0.270288 -2240.13 -3965.02 -293901 153471 -507724 -433247 
120 1 25.2528 34.3532 4.07461 0.568498 -327586 257230 -556667 260676 -47482.8 -264815 
1359 1 27.1801 36.1466 3.99883 0.170066 -521549 -91672.7 -51847.5 187873 -202195 65988.4 
182 1 27.1092 34.2694 5.82362 0.503384 -192680 -440290 207350 417635 -16110 -305685 
123 1 30.8075 32.5723 3.94589 0.336444 103848 -212014 389933 -478788 195706 -18619.3 
124 1 29.0132 34.4472 3.96925 0.357075 315153 431380 315004 188589 -230335 168751 
186 1 30.7319 34.4166 5.82945 0.362441 113851 263949 378382 -237604 163769 102840 
1365 1 32.6621 36.1485 2.22988 0.455512 305229 158046 361750 121408 -357965 -109270 
1367 1 34.2985 36.124 4.04561 0.214092 -342800 -41075.4 -53075 277248 -467543 191042 
126 1 34.2876 34.3111 2.18277 0.440572 -324460 -451587 37803.6 357476 -348771 -463386 
125 1 32.6208 32.5129 2.21058 0.320895 -830234 -326999 -7650.05 -51445.6 -145152 385488 
127 1 34.2901 32.6167 4.09661 0.180906 -753498 -512893 -290911 -520073 128340 74351.8 
128 1 32.4984 34.4119 4.05624 0.260292 -239931 -296271 -149189 -210274 148364 234450 
189 1 32.6232 32.6632 5.89829 0.201114 -378018 -205099 -133958 -330534 280893 143159 
2919 1 36.1247 32.6648 5.91545 0.191916 -115956 -205562 -94825 -209584 320217 85316.2 
2850 1 36.1039 34.3119 4.05367 0.0866854 32001.2 -262099 6390.13 -208134 -52322.9 143127 
130 1 23.789 24.0961 6.0618 1.31078 -1.11042e+06 -993340 -152339 -535276 155137 54882.4 
129 1 22.3529 22.1946 6.03923 27.3298 407842 -17926.1 227347 -301610 -315149 168792 
131 1 23.8824 22.2963 7.9121 13.9822 -485880 -305963 -216676 -142054 -477417 -235308 
132 1 22.0533 23.9239 7.86558 16.3758 37735.4 628442 1.29398e+06 5743.76 206807 -258416 
194 1 23.9542 24.0526 9.64898 1.30028 -297201 -670917 53467.2 -515948 184807 -450110 
134 1 27.2242 23.7463 6.00749 0.426693 107166 125663 -164026 -200443 96218.7 268867 
135 1 27.2847 21.9881 7.91477 17.4112 1.26687e+06 135696 1.14224e+06 -280383 256004 -3312.4 
136 1 25.6269 23.9586 7.81694 0.459647 -948992 774.7 -445130 -564986 149521 378188 
197 1 25.5416 22.0714 9.68385 16.4619 512716 270081 469198 -166388 -221230 44351.5 
198 1 27.221 23.8672 9.64177 0.569998 -15473.9 -51475.9 231031 -116458 1571.14 45803.2 
138 1 30.7411 23.742 5.93932 0.176023 -239113 -1.008e+06 -396748 -123308 142335 -134671 
139 1 30.6746 21.9714 7.85949 16.0951 1.24821e+06 549851 1.54739e+06 18462 57206.2 81112.8 
140 1 28.9682 23.7765 7.76264 0.340969 -453153 -683819 344042 -417023 58530.4 253746 
142 1 34.3803 23.7816 6.03358 0.549283 447732 -1.2438e+06 -259477 34486.4 -17623.5 92117 
141 1 32.5721 21.8274 6.06193 18.1197 570190 923738 474184 -99476.5 -195666 -228256 
143 1 34.3542 21.9947 7.60231 14.211 406524 -79630.2 540197 175113 -410279 450229 
144 1 32.533 23.654 7.85648 0.334105 625.28 -59098.3 425725 236323 -70980.6 -80485.9 
206 1 34.3404 23.6915 9.59731 0.635027 135600 -28575.5 884325 -344265 55673.8 152166 
147 1 23.7265 25.7557 7.86788 0.377973 -961016 -1.16766e+06 -81658.7 -134298 266623 -174496 
148 1 21.9161 27.2508 7.77876 14.9095 -473072 570186 1.0737e+06 576241 -121305 -44617 
210 1 23.649 27.5118 9.64221 0.751423 -308136 91069.6 306417 412320 127213 -433698 
149 1 25.5492 25.7669 6.06739 0.719602 -622513 -594241 -471825 -437096 278871 -132023 
151 1 27.3698 25.7201 7.86254 0.442188 -217059 59344.3 513820 -92750.5 -220627 176107 
152 1 25.4675 27.3569 7.90159 0.502594 -139528 -290511 159588 -372572 212947 -106860 
153 1 29.0274 25.4738 5.94041 0.372541 -408450 28568 -363571 129313 -397451 256083 
155 1 30.7105 25.4328 7.84541 0.685611 -52520.9 97550.6 93586.4 -177508 20844.5 -364441 
156 1 29.1552 27.4533 7.80324 0.410277 120221 287674 738866 -95683.5 -34220.6 72455.9 
218 1 30.8768 27.2407 9.64938 0.550278 -160037 359627 755670 -32719.4 32135 -150150 
217 1 29.0766 25.5977 9.71015 0.159005 90978.3 523491 622267 -438439 24062.3 13340.2 
157 1 32.5283 25.4104 5.9396 0.343478 -422048 -431006 45827 -481055 -423973 -144840 
2955 1 36.1493 25.4905 9.6847 0.3255 733748 497593 599386 223266 -25803.9 -219811 
159 1 34.4392 25.4439 7.78032 0.356355 436972 89565.2 -363270 65433.2 117961 -199782 
160 1 32.4935 27.3744 7.67604 0.760656 539953 591983 155248 239267 167357 135303 
221 1 32.647 25.5693 9.58938 0.389963 49946.2 161491 1.04065e+06 163333 73357 -238264 
222 1 34.442 27.2941 9.5965 0.167308 266407 315028 797309 -26582.5 473143 -21419.3 
161 1 21.8371 29.1156 5.94658 15.3569 81893.7 818043 598513 -210588 -303254 -166885 
163 1 23.5959 29.1179 7.67939 0.691028 -667146 149482 88672.4 -312223 349861 513275 
164 1 21.8089 30.9055 7.86279 16.6236 393187 931252 1.19308e+06 -162910 32901.9 37802.9 
225 1 21.8847 29.0767 9.62148 16.3661 -44759.2 853516 1.17343e+06 591433 -12687.7 -41384.2 
226 1 23.665 30.9511 9.71091 0.445486 -350728 392001 521579 -189369 20370 27641.1 
165 1 25.3864 29.068 6.04048 0.462476 -372152 -537993 -497758 9816.51 426694 21313.6 
166 1 27.1562 30.7891 6.01996 0.328463 -348353 -29274.5 -123679 3040.28 -299035 -116730 
167 1 27.3136 29.1565 7.8934 0.160508 294972 -343218 -37600.4 -19047.7 -37840.6 437483 
168 1 25.3687 30.8132 7.85665 0.268453 -155749 -593401 -164382 -87154.1 311067 -218718 
171 1 30.9001 29.2472 7.78664 0.407194 -490675 -482806 395932 -202030 -144426 11951.2 
172 1 29.0329 30.9204 7.75295 0.199283 -345365 -392512 22015 -241676 178820 -7898.54 
174 1 34.3624 30.8564 5.9454 0.172964 -55327.5 -630027 -314836 -242558 -102391 269438 
175 1 34.4597 29.1535 7.67994 0.382085 256741 394761 444422 275887 142168 535235 
176 1 32.5877 30.9445 7.86136 0.344698 -520327 -384691 307120 -527624 133777 187018 
238 1 34.4837 31.0472 9.65242 0.876393 216813 467492 582080 43644.1 251506 311543 
237 1 32.6468 29.1304 9.60607 0.168743 926176 560447 707786 269585 -167699 174393 
1427 1 23.6387 36.0611 7.71257 0.373276 2311.69 317534 807953 1896.84 7979.81 96047.5 
180 1 21.8677 34.3577 7.85623 17.2464 380508 1.1045e+06 1.4208e+06 -90940.7 -39207.6 104152 
179 1 23.6345 32.573 7.69693 0.396272 -153714 55014.7 405080 89717.5 390548 -59333.7 
241 1 21.7739 32.6389 9.69825 18.9781 584223 1.2917e+06 1.48465e+06 -41003.4 -112508 -6971.36 
1497 1 21.8117 36.1348 9.68239 18.4024 817045 1.45633e+06 1.37778e+06 -9928.22 22214.5 -78343.1 
1431 1 27.2212 35.9856 7.8188 0.344079 -983365 -752253 417980 384520 234204 157824 
181 1 25.3199 32.5175 5.93573 0.215558 -587674 -272382 217794 -294753 387950 14744.1 
183 1 27.1385 32.6009 7.79912 0.177661 -100392 -247934 -473.907 77045.7 361669 -137419 
184 1 25.434 34.3988 7.75893 0.307038 -391530 -570297 418833 47890.7 40171.4 130880 
246 1 27.1661 34.2982 9.68046 0.285215 -255235 -313300 -159722 -153587 406699 290546 
245 1 25.4446 32.5742 9.6162 0.313913 -637697 -1.0199e+06 -298597 -654323 261431 -633285 
1435 1 30.9603 36.0763 7.76303 0.868039 267633 45869.3 374927 285731 389105 345957 
185 1 28.9657 32.6301 5.94063 0.124937 146087 -80111.1 265108 149593 -137508 -133221 
188 1 28.9298 34.3794 7.78996 0.180333 35382 -50383.5 742989 759342 162621 -132438 
187 1 30.7941 32.6547 7.75161 0.11753 -191479 49829.7 339800 -74859.8 99817.5 -204700 
249 1 29.1108 32.5831 9.66802 0.165632 -187187 -240952 589534 -321305 461669 -281866 
250 1 30.8193 34.3838 9.67728 0.291597 -109036 233060 503723 66175.1 571921 -176720 
1437 1 32.5533 36.1401 5.93889 0.181118 -398217 112144 23321.8 269745 508551 -75446.4 
190 1 34.309 34.3916 5.943 0.11865 -390508 -502046 490023 -232723 162300 182922 
191 1 34.426 32.573 7.748 0.34753 -312089 -629882 -370972 -349281 208817 145534 
192 1 32.6267 34.3647 7.87009 0.255008 -338983 -361004 -18097.8 433180 147806 -44946.2 
254 1 34.4402 34.3016 9.63696 0.559096 -533394 -188597 308062 337100 126452 179245 
193 1 22.2198 22.2905 9.95676 26.0148 618100 265936 573584 13230.8 -331618 -889241 
195 1 23.9305 22.0698 11.6636 16.6267 -117772 425151 282723 -48825 -85773 -187233 
196 1 22.2063 23.8804 11.6069 14.5701 12704.7 -528882 -311141 -157478 -283779 -1.01579e+06 
199 1 27.2004 21.9591 11.5709 10.8397 917455 549801 1.46494e+06 428475 -158786 7347.84 
200 1 25.6692 23.8395 11.6456 0.527016 54671.9 -421459 604861 154257 -165947 84744.4 
202 1 30.8487 23.7955 9.79749 0.230377 1.01427e+06 286554 782589 -106059 301345 226492 
201 1 28.9838 22.0422 9.78949 16.9105 1.1762e+06 698090 1.319e+06 51153.6 94478.6 -52510.3 
203 1 30.8394 22.1111 11.6805 16.0071 1.05114e+06 141748 732081 34071.4 -375505 -229385 
204 1 29.0119 23.8662 11.6782 0.316343 576673 431654 1.08406e+06 41878.4 153055 -78466.9 
265 1 28.9748 21.9162 13.4717 11.7655 1.50454e+06 765737 1.30866e+06 139064 123203 -202390 
266 1 30.9109 23.7701 13.4422 0.118742 630201 -605582 -298926 162083 -134397 -89023.8 
205 1 32.7221 21.9269 9.75556 15.5371 1.68296e+06 371685 2.04027e+06 -528497 52358 139033 
207 1 34.5742 21.8226 11.6114 16.517 1.41754e+06 648209 1.59594e+06 -265032 84779.9 -220797 
208 1 32.7984 23.7556 11.6376 0.671501 351289 197855 627173 -480856 -3439.02 130112 
270 1 34.5374 23.6337 13.4185 0.210139 300068 338121 148599 -203392 -414474 -139718 
269 1 32.6469 21.9441 13.3365 16.8963 847520 187038 840840 -58265.4 -67471.6 295520 
209 1 21.9505 25.6059 9.808 16.1733 634208 1.01108e+06 966980 19328.1 68867.8 -175156 
211 1 23.9181 25.6326 11.6353 0.800608 -163691 -24106.9 -36192.3 -420723 299968 -204518 
212 1 21.8668 27.2893 11.5939 17.5251 695425 1.12499e+06 1.02923e+06 -222302 -60464.8 -246747 
273 1 21.8315 25.5212 13.3863 18.1079 622436 732539 1.16953e+06 -30465.7 117953 -63732.4 
213 1 25.6019 25.7525 9.89339 1.02398 -530601 -634625 -24069.6 -770052 123538 -110472 
214 1 27.2937 27.565 9.74067 0.435248 91248.8 -147834 276922 -172552 27415 154897 
215 1 27.2901 25.7336 11.7147 0.321277 333297 486700 863359 -81342.3 -320138 4086.13 
216 1 25.5116 27.5471 11.6242 0.435822 79006.7 -755020 -66275.2 -179501 66865.4 -438880 
219 1 30.8718 25.4968 11.683 0.432666 819899 420287 696214 -188058 -128571 53184.3 
220 1 29.1732 27.445 11.6077 0.256868 416286 373581 959070 -435936 -51616.1 -125066 
282 1 31.0302 27.3754 13.4599 0.394227 37685.2 -441386 -55100.7 -26844.3 -296839 40140.9 
223 1 34.4254 25.5736 11.5674 0.262999 262737 410250 1.00843e+06 -67611.3 216889 116315 
224 1 32.7401 27.3479 11.504 0.244596 411146 393942 749472 332144 242523 -212233 
227 1 23.574 29.1371 11.5887 0.166221 -380708 -109484 97947.4 311323 -12095.6 -504999 
228 1 21.7539 30.7373 11.5644 17.4392 279381 1.28113e+06 1.46084e+06 366854 -172510 -59233.6 
290 1 23.5304 30.7932 13.3831 0.370405 -161212 9297.7 125327 77351.1 36116.1 -129909 
230 1 27.3551 30.9246 9.71595 0.276041 -15019.7 -448349 404422 -296657 155785 -173610 
229 1 25.5176 29.2421 9.83123 0.553508 16200.1 -467847 100757 292423 62828.5 246423 
231 1 27.3085 29.2171 11.6529 0.102115 169641 -41876.7 188050 -385692 -210010 -338616 
232 1 25.3839 30.9431 11.5957 0.269643 212005 249203 298372 268561 -86212.6 -381996 
294 1 27.2527 30.8862 13.477 0.096798 751029 113500 159196 -150383 179645 -452806 
234 1 30.8924 30.9255 9.74848 0.176993 -395745 -435695 443412 -155315 405442 -186514 
233 1 29.1752 29.1993 9.73502 0.223059 2666.85 1850.04 484663 -380656 -145076 -42736.6 
235 1 30.9141 29.1186 11.6423 0.17604 -517455 -262470 466449 142202 -211977 370157 
236 1 29.2286 30.8399 11.7067 0.469147 -459802 -479062 183748 86796.7 95074.2 -251092 
239 1 34.5955 29.0568 11.6072 0.520371 -454183 22425.9 364414 299821 107441 57398.1 
240 1 32.8688 30.804 11.5907 0.965616 223798 74667.8 540515 -3049.73 -132869 286605 
302 1 34.5243 30.9959 13.4629 0.430631 -919987 -175457 -583366 132848 293321 386390 
301 1 32.7593 29.0821 13.3861 0.340583 -108500 28812.9 165154 -195622 -21148.4 335067 
1499 1 23.7456 36.0821 11.514 0.507033 212246 380596 109582 -151700 16630 252762 
242 1 23.6515 34.3196 9.72043 0.200624 70981.1 488699 639996 -102452 -283686 -52244.3 
244 1 21.8125 34.4344 11.6421 17.7802 458159 1.30715e+06 1.30591e+06 21002.7 -218485 259645 
243 1 23.5721 32.6024 11.6185 0.365141 -470470 -105466 318337 74922.9 213278 37048.6 
306 1 23.575 34.4465 13.4494 0.337801 -415412 72598.3 751305 -54277 -360740 -72755.9 
305 1 21.8237 32.649 13.4121 16.74 273288 1.09203e+06 1.01373e+06 -22106.6 151542 244229 
1573 1 25.3784 36.1194 13.4273 0.373869 -546259 -248763 725873 119754 -129966 412555 
247 1 27.3784 32.5885 11.5563 0.455087 -36410.6 108506 491036 172594 -31560.8 124270 
248 1 25.4681 34.103 11.4821 2.00555 -317287 -28324.5 -259009 -119541 81006.6 111663 
1503 1 27.2415 36.0355 11.6896 0.44708 429827 337820 147305 -41207 115061 308175 
1501 1 25.465 36.0562 9.73478 0.20984 -398425 -429769 373077 127193 507696 -33197.7 
1507 1 30.8789 36.1148 11.6328 0.181896 40038.8 203833 449944 -143980 118378 136121 
1505 1 29.0006 36.0941 9.78695 0.20742 347094 325491 758453 322215 -190004 389284 
251 1 30.9953 32.5318 11.747 0.7247 37722.5 9616.69 509420 -496059 210449 -38286.4 
252 1 29.1601 34.3096 11.5406 0.554625 422014 40905.5 504973 -391080 237290 147324 
313 1 29.074 32.5946 13.4867 0.20573 84062.7 268230 466226 -345265 94452.3 -130777 
1577 1 29.142 36.1142 13.4379 0.595423 -154386 -633904 -258766 -137734 -20139.2 733841 
1511 1 34.5161 36.1125 11.6234 0.164335 90516.8 233393 888247 346963 -25118.3 217913 
1509 1 32.7491 36.0424 9.71971 0.305079 -17500.9 141913 226912 193680 242402 -68083.1 
253 1 32.6264 32.6655 9.71386 0.225806 -283945 -609959 390320 -178053 112095 -111600 
255 1 34.4413 32.7052 11.6955 0.306107 -361285 -877442 -68854.6 307093 -36439.8 236358 
256 1 32.6814 34.3454 11.6706 0.132051 126349 -269057 811552 313946 27983.3 71394.8 
257 1 22.4529 22.0632 13.5644 26.0988 -359484 -268082 125508 -779738 -178054 -110527 
258 1 23.775 23.926 13.4953 0.725332 -789258 -1.12893e+06 111942 -1.13059e+06 -95624.1 91879.9 
259 1 23.9235 22.0874 15.3727 14.4612 -406507 321553 -503687 -358149 -448699 -97672.2 
260 1 22.0482 23.8726 15.3062 15.6532 66877.4 -117.124 408769 -538411 184719 164744 
321 1 22.065 22.3094 17.1302 28.5992 627924 254051 823784 -360005 30577.4 305344 
326 1 27.2603 23.7403 17.2562 0.287978 -222105 -64229.9 432091 340776 -186857 -77836.8 
262 1 27.2594 23.8521 13.5475 0.231891 -239637 173104 -318338 85971.3 -280222 -150321 
261 1 25.4788 21.9552 13.5763 16.362 695610 785863 124582 34735.1 -196498 -54659.2 
263 1 27.1926 21.923 15.2835 17.2611 940760 346335 1.12889e+06 113186 -321473 116662 
264 1 25.6019 23.8576 15.4205 0.325003 -484938 -369712 117108 -347666 192919 38136.3 
267 1 30.8633 22.0618 15.2769 16.0434 829992 -271915 1.13374e+06 -133809 136244 -202322 
268 1 29.0137 23.6927 15.2645 0.379936 209492 -300979 426523 458077 -375901 247472 
329 1 29.0629 21.9667 17.1555 17.3186 952710 216899 883191 28870.1 -42182 -165953 
330 1 30.9371 23.6947 17.0811 0.206652 252084 -79378.4 62658.9 -392908 134207 -364445 
3012 1 36.1263 23.5338 15.3229 1.04661 -579748 -719387 -5541.19 42565.9 139569 -159468 
272 1 32.7072 23.6416 15.2849 0.261866 26876.4 -116722 490821 -542697 61573.7 -40547 
271 1 34.5013 21.8333 15.2732 16.7673 945576 -130059 1.62453e+06 -614080 99320.3 88359.6 
334 1 34.5219 23.748 17.1366 0.586993 -885023 -851609 -17543.9 -294935 454634 134844 
333 1 32.8537 21.9668 17.2482 14.5061 1.03096e+06 -143890 562917 -234751 20817.5 -437448 
274 1 23.5948 27.2794 13.5304 0.331399 -333611 263609 708426 201147 27871.8 -266497 
275 1 23.719 25.5582 15.5118 0.48873 -145537 -767172 -53294.1 -559701 322391 -364534 
276 1 21.8203 27.3086 15.3234 16.3783 154674 1.07118e+06 1.27903e+06 -468718 232242 325788 
338 1 23.602 27.1666 17.2533 0.794094 -89805.3 203558 329480 -160221 535602 -549860 
337 1 21.7851 25.4754 17.2306 12.4844 563266 1.32918e+06 993432 -251408 285819 -271296 
278 1 27.2699 27.5033 13.5702 0.392906 -40180.4 -249170 -17126.7 -106431 -265925 -479417 
277 1 25.4943 25.6904 13.6039 0.425925 -304287 -36227.4 157822 -28636.8 -279657 -298554 
280 1 25.4376 27.3433 15.4107 0.119151 307360 -14673.2 -72740.8 -351856 -32742.3 -410999 
279 1 27.3562 25.5721 15.322 0.359162 -932663 -532978 -581387 -390964 81246.3 -542549 
342 1 27.3267 27.3414 17.0954 0.412717 -1.05212e+06 -744364 3549.85 -794573 271798 -28525 
281 1 29.0936 25.6032 13.6193 0.476974 -153831 486210 -233635 -100447 -12344.3 -179507 
284 1 29.0406 27.3886 15.3625 0.304579 -430227 -1.2466e+06 -965840 -99414.3 163725 -449466 
283 1 30.8815 25.5733 15.2539 0.233298 170757 746284 -12129.5 25809.3 -240236 -45665.7 
345 1 29.083 25.5889 17.1341 0.239545 202329 212960 246597 1813.55 -244144 66222.9 
346 1 30.9444 27.2599 17.2015 0.223698 -245039 189193 -213665 -159008 155165 -6784.45 
286 1 34.5745 27.3176 13.5166 0.377956 -110400 -310453 517062 -205899 -216393 5450.08 
285 1 32.7222 25.5525 13.5251 0.286757 68625.8 540538 515607 71548.9 25184.1 -117075 
287 1 34.5159 25.3886 15.3041 0.254516 -128244 -749649 -195903 -191592 14804.3 154176 
288 1 32.7215 27.3942 15.3457 0.449938 -92472.4 -169874 -221310 -19080.7 -215891 -442594 
350 1 34.587 27.2072 17.07 0.708095 -150330 234953 555280 89106.6 -15716.9 -64746.4 
349 1 32.6949 25.4374 17.1323 0.129352 17365.9 183247 499601 90678.9 221085 87267.1 
292 1 21.7655 30.848 15.2523 17.028 327671 1.05586e+06 1.73655e+06 -113458 209030 -225444 
291 1 23.4916 29.0844 15.3965 0.454899 -12927.8 490779 895334 -194800 -381192 -3596.46 
289 1 21.8298 29.0361 13.5175 16.8467 1571.14 538391 592809 -109701 -124022 64873.6 
295 1 27.2642 29.1158 15.3464 0.218644 196798 -357710 -206518 103256 -343788 -269833 
296 1 25.3514 30.922 15.2734 0.321563 393691 293282 545333 -41109.3 -67830.7 -139054 
293 1 25.3572 29.0768 13.4961 0.268229 385576 -61152.7 387859 337648 -104487 -531186 
357 1 25.2933 29.0636 17.2435 0.803411 711004 356629 596289 83068.4 112531 -170928 
358 1 27.0829 30.9143 17.1754 0.854884 847346 831329 300198 233721 276429 100466 
361 1 29.0802 29.0519 17.047 0.668018 -303651 -714085 -268468 -754627 29713.1 -98445.3 
297 1 29.1728 29.1072 13.5382 0.188684 -161491 -2182.04 100434 -394499 -87980.7 351644 
300 1 29.0789 30.9322 15.4976 1.0168 -51336.3 -328541 -34662.2 26450.5 -475959 223986 
299 1 30.9524 29.0737 15.2905 0.280018 -21331.7 -348336 -509212 359667 -164605 -232489 
298 1 30.9375 30.8726 13.6004 0.260462 385558 -271033 201814 -144371 -339822 366555 
362 1 30.8624 30.7221 17.1047 1.01614 -522371 261635 -303130 -135037 -451446 -142490 
303 1 34.4779 29.1619 15.3128 0.396681 -207855 -39247 221086 -146777 270543 -70389.4 
304 1 32.8219 30.943 15.4175 0.560732 -237324 -505265 -19392.4 128869 78611.8 228674 
365 1 32.7889 29.0103 17.1431 0.435285 267221 -302368 -126640 -190380 166217 -442090 
308 1 21.7449 34.4482 15.3022 18.559 587667 1.40799e+06 1.49216e+06 -10944.1 -26118.9 302121 