ITEM: TIMESTEP
19200000
ITEM: NUMBER OF ATOMS
5780
ITEM: BOX BOUNDS pp pp pp
3.8951027067604262e+00 6.8404897293255075e+01
3.8951027067604262e+00 6.8404897293255075e+01
-6.8578333138457204e+00 7.9157833313861261e+01
ITEM: ATOMS id type x y z c_csym c_2[1] c_2[2] c_2[3] c_2[4] c_2[5] c_2[6] 
68 1 21.6595 23.7781 -3.43801 23.3313 218202 205120 995653 387014 -134053 366050 
65 1 21.9363 22.118 -5.53606 42.2917 182322 601556 737121 -214226 116897 370457 
66 1 23.546 23.8956 -5.36057 5.88701 -909808 -1.78257e+06 -645782 -133930 -564347 243235 
69 1 25.2512 22.0846 -5.25359 13.4111 3182.19 -128402 -134243 55013.3 -68523.4 -194345 
67 1 23.4606 22.2134 -3.59253 20.3277 -442244 -653803 605519 206746 92291.4 206623 
73 1 27.628 22.5683 -4.68331 10.783 94273.4 -39960.8 560394 -351189 -67243.5 -51741.2 
70 1 25.9 24.4123 -4.82698 5.33427 -518422 -300932 -103699 -503274 -101553 21648.2 
12 1 27.6295 24.3754 -6.56047 5.77474 -394165 477111 149738 -364646 260612 71294.7 
74 1 29.3029 24.3314 -4.69333 0.196845 -47781.8 174598 348612 5631.69 -144039 96349.4 
77 1 30.9624 22.4443 -4.6515 18.2654 1.21355e+06 376750 1.27833e+06 -104349 -174557 108630 
11 1 29.3489 22.3593 -6.56571 11.4202 791591 595017 1.28702e+06 -318533 40824.4 83900 
16 1 30.9293 24.2482 -6.58333 0.352214 109509 201.519 985812 -191105 -33030.6 161175 
15 1 32.7902 22.568 -6.43736 14.5099 1.05788e+06 41774 1.02293e+06 -183996 -73947.3 -123480 
78 1 32.6241 24.2895 -4.65636 0.468533 221051 -564127 415988 131797 -189627 -119931 
2793 1 34.4268 22.5697 -4.58592 15.5671 704979 30353.8 620115 17310.5 25995.9 -401526 
2724 1 34.5065 24.2616 -6.61616 0.330131 -322865 -619765 604676 -224181 -112549 12670.3 
2723 1 36.0523 22.4407 -6.60716 14.8192 1.13625e+06 -38607 986132 421832 -352800 33723.6 
81 1 21.636 25.4538 -5.21236 15.5371 -94345.3 989011 715853 35901.2 34048.9 -84551.1 
82 1 22.1762 27.9648 -4.68255 9.03412 218851 745371 861092 100209 -152737 333035 
85 1 23.9512 26.2186 -4.70126 6.20122 86754 -399110 -298474 -38050.2 -365738 -127670 
24 1 24.0162 28.0023 -6.64177 5.3806 -413762 -287734 397327 -250059 -475456 -307472 
86 1 25.7454 28.1317 -4.82452 0.442989 576183 -519434 -278998 -419359 -340621 -394867 
89 1 27.6139 26.176 -4.64225 0.688139 -124846 -157269 1444.09 -442773 -230866 -334968 
23 1 25.8785 26.2987 -6.5513 6.19001 149793 -25117.5 707937 -255943 48699.6 -47966.8 
28 1 27.5687 27.9688 -6.83685 0.656474 -143934 -302268 710123 -508872 119680 -172617 
90 1 29.3691 27.9362 -4.80271 0.193011 -247242 -86118 319427 248748 416702 -271240 
93 1 31.0911 26.2495 -4.7876 0.60641 -37331.2 42725.7 540175 523369 47287.3 -133926 
27 1 29.3689 26.199 -6.61893 0.35429 85569.7 34429.3 363727 -101371 18135.1 -172157 
32 1 31.0649 27.9952 -6.69118 0.221317 -309819 -274983 73830 69555.4 63891.4 71150.6 
94 1 32.8428 28.023 -4.86924 0.451138 -438052 -309051 300741 195946 -76133 -231220 
2811 1 34.4403 26.0466 -4.82064 0.249721 760622 547418 684467 -23960.6 31649.1 -232813 
31 1 32.6104 26.0397 -6.71092 0.554304 147042 521291 569434 -139558 147729 165204 
2742 1 34.5026 27.7545 -6.78192 0.502938 -123821 438146 331625 8200.17 -71498.5 103405 
97 1 21.4261 30.4007 -4.37544 29.3798 355594 938077 1.35661e+06 -180212 -37222.4 -245868 
36 1 21.6784 32.1186 -6.2739 23.189 -440297 304132 364626 -433655 35736.5 -419211 
101 1 23.8399 29.8526 -4.90152 6.02381 -314167 -45270.3 330672 -266376 -136892 -388679 
98 1 23.1394 32.1668 -4.2948 5.07158 -14465.6 84061.9 -9753.44 180750 -185526 -96329 
35 1 22.1831 29.7395 -6.80176 8.88942 163206 288398 1.17476e+06 40825.4 -27981.2 47889.6 
40 1 24.008 31.5382 -6.83945 5.92026 -838127 -783801 78949.3 91909.1 153607 -210850 
102 1 25.5854 31.5759 -4.88857 6.33609 259493 -262968 -176004 -337666 -49824.3 -2631.14 
105 1 27.5598 29.7233 -4.95486 0.304156 -574128 164760 36631.2 -613222 -128622 53669.3 
39 1 25.777 29.7763 -6.666 0.394841 -487810 -777900 -181303 -359842 -263832 296158 
44 1 27.4184 31.5437 -6.75783 0.19614 -182844 -278108 432591 -653732 -161748 73700.3 
106 1 29.3434 31.4898 -4.96719 0.27973 -187112 -146068 -245287 -196398 416720 -337700 
109 1 31.1992 29.7572 -4.86997 0.311551 -245223 -874819 91653 237050 -71626.9 -299420 
43 1 29.3154 29.7444 -6.76337 0.0768069 -307342 -173429 61727.5 -268472 306288 -323909 
48 1 31.0581 31.499 -6.69201 0.276077 -36467.7 -242403 81125.4 -539991 426361 54785.4 
110 1 32.9115 31.4606 -4.85246 0.168528 -319962 -600447 7143.73 -590551 -108439 -569978 
2829 1 34.6768 29.7153 -4.85929 0.269823 -878494 -864025 82675.5 -108026 289471 -86093.5 
47 1 32.9291 29.7357 -6.79399 0.341617 300451 42276.8 499235 -148791 151455 119290 
2760 1 34.7047 31.4687 -6.77353 0.225816 -98352.5 -577675 -162862 -596777 -54761.7 -33952.9 
56 1 25.1123 35.7649 -6.28299 0.179125 -565263 106064 236092 139361 281697 -100899 
1281 1 22.7574 34.649 -3.98514 21.0386 351958 1.01584e+06 857828 208015 16666.3 -279967 
51 1 23.3412 33.81 -6.25934 4.93297 -811566 -226921 424378 -45580.8 501739 -404085 
117 1 25.1293 33.9956 -4.4349 0.397497 -335834 475663 351485 260553 -234819 -94180.8 
121 1 27.4664 33.363 -4.90784 5.68717 -154647 314661 -102530 -137777 301254 11018.8 
118 1 26.8858 35.8565 -4.35714 0.31359 -541446 -212693 139443 -134404 130177 147691 
55 1 25.639 33.3504 -6.83735 6.1641 -609014 -238552 147957 -108316 525660 -55842.5 
60 1 27.5046 35.1371 -6.82012 5.97388 -535178 120943 205076 -38052.2 -374395 213931 
122 1 29.1733 35.1521 -5.02385 6.34373 -75500.1 361867 303025 -51417.4 -89597.4 -119874 
125 1 31.0359 33.3388 -4.96231 0.278748 80984.5 237227 -23716.7 -407070 213335 -174975 
59 1 29.1421 33.2807 -6.83686 0.366383 209820 -136513 516206 -178969 182528 87280.2 
63 1 32.7593 33.2969 -6.78963 0.368267 -186775 247713 141664 -91424.2 -100932 -247244 
126 1 32.884 35.0377 -4.91083 0.346117 -110826 -78168.9 460470 -100005 -9404.24 -423910 
2847 1 34.5944 33.2507 -4.93001 0.191037 236328 25217.9 720180 -37734.6 184600 144635 
2778 1 34.7015 34.9973 -6.80402 0.252836 -72596.3 -138197 306249 87712.9 -124401 -159414 
130 1 22.2031 24.3797 -1.02355 11.2335 667407 853588 1.32505e+06 85381.1 -39712.6 -56342.2 
133 1 24.1395 22.8182 -0.969483 12.496 -438.184 168856 729693 -389581 -423011 128.948 
72 1 24.0382 24.4715 -2.99521 5.5674 535148 -573200 280981 -425713 -128645 247596 
71 1 25.8111 22.6477 -2.89773 9.92946 87065.1 146289 397929 -435771 -68959.9 -2887.67 
134 1 25.7775 24.57 -0.929974 0.323277 -328696 -891428 900778 -335517 239166 250057 
137 1 27.3496 22.6455 -0.910741 15.002 602477 509515 601553 220737 278101 16788.3 
76 1 27.4556 24.422 -2.87322 0.239321 -27435.2 -623738 257039 -72885.7 -86813 227210 
138 1 29.1934 24.4765 -0.89389 0.156927 430761 -63173.8 -226341 47730.6 487285 -388255 
75 1 29.0973 22.6425 -2.67345 14.6841 674128 -82365.3 1.02372e+06 37788.8 -86532.8 -33096.5 
141 1 30.9975 22.5822 -0.801354 17.201 896414 564639 527651 -56928.7 -300067 -218933 
80 1 30.8652 24.3358 -2.74484 0.565351 47026.5 378585 635308 147218 80445.6 -93375.8 
142 1 32.7445 24.4999 -0.947269 0.60988 558811 -166357 -160031 -337317 -24573.5 346339 
79 1 32.7125 22.6588 -2.73377 15.5871 178107 -173256 790482 -343398 93027.5 131058 
2865 1 34.5441 22.4706 -1.01372 15.8208 1.31306e+06 656919 1.2816e+06 -346068 91569.6 218150 
2796 1 34.4581 24.2565 -2.823 0.318514 -227798 -934330 200051 -333657 -69284.4 -408278 
84 1 21.5284 28.6444 -2.29674 28.8357 -245521 529887 1.25251e+06 -432842 242402 -204794 
145 1 21.6175 26.8337 -0.467345 27.2054 244814 843063 924124 -195414 56035.8 -54094.7 
83 1 22.1352 26.2204 -2.87872 9.34552 136724 247165 393933 -331227 116604 174839 
149 1 24.0043 26.2374 -0.954679 5.64645 23664.2 -527514 816881 544216 61594.6 214257 
88 1 23.863 27.9541 -2.82609 5.31702 -409305 -325973 -184039 328504 69490.6 -403223 
146 1 23.4002 28.5198 -0.514072 4.93648 -239179 -566907 -30680.7 63935.3 407295 -321084 
87 1 25.7343 26.3489 -2.92409 0.640919 -72279.9 362903 399585 5878.57 -125650 -173882 
150 1 25.8146 27.9988 -1.03617 5.67078 -505957 -636580 756434 117013 26145.5 -279750 
153 1 27.4665 26.3005 -0.993505 0.237229 -417365 -175647 751053 401384 156767 62005.3 
92 1 27.6407 27.9943 -2.97896 0.635729 -363837 -751500 225423 -70114.9 164837 -254646 
91 1 29.2279 26.255 -2.76631 0.352179 -551294 -97300 114933 613230 -550501 246073 
154 1 29.3177 28.1624 -0.973836 0.557646 -70155 -268425 223196 -127830 -182573 -429335 
157 1 30.9591 26.3294 -0.980926 0.672957 -746491 32132 -92547.9 -177904 -398403 -79140.7 
96 1 31.147 27.9854 -2.90357 0.238937 563521 423288 379844 -283759 -80364.4 -40592 
158 1 32.7756 27.9536 -0.923669 0.364694 -302698 -288209 6216.45 -390150 -431506 -133626 
95 1 32.8722 26.0786 -2.76321 0.996727 -136826 -44741.1 -93154.8 317150 -339008 299506 
2883 1 34.5517 26.1752 -1.05395 0.327202 -584500 -19482.1 312885 -315256 -648971 -103469 
2814 1 34.5847 27.8755 -2.99445 0.211059 -140332 -471197 290961 308767 -168852 -81789.1 
99 1 23.1846 30.295 -2.46328 5.47078 -89957.7 -195099 742821 -343519 312056 91643.6 
165 1 25.0763 30.4129 -0.672712 0.239316 -448092 -388460 936570 22633.4 240190 -143196 
113 1 22.5783 30.8644 -0.0692049 21.5752 573435 886694 1.1819e+06 -17327.4 232806 60502.4 
104 1 24.9539 32.1803 -2.51894 0.250831 -111848 620258 100017 111157 -70391.4 -64017 
108 1 27.5099 31.5711 -3.11616 5.98777 128637 -230939 540516 -239978 116783 135627 
103 1 25.6724 29.8206 -3.16699 6.16451 703110 -69610.6 37147.5 -130071 -102296 -501743 
169 1 27.3826 29.842 -1.17961 6.15226 -393102 -311739 410225 -73776.4 501507 -281922 
166 1 26.7447 32.2031 -0.763385 0.367938 242128 -479111 230318 -393849 36260.1 26241.9 
170 1 29.2733 31.5733 -1.11879 5.33932 -116136 -387677 129677 -232169 -18630.7 -46666.5 
107 1 29.2445 29.8098 -2.98993 0.256576 -245894 -289009 589939 -647805 -148959 23829.2 
173 1 31.0377 29.8264 -1.09561 0.196391 -714054 -705462 36515.3 -649189 99463.3 66733.1 
112 1 31.0821 31.3788 -3.02682 0.472702 -397271 -551184 -6240.04 -608802 50803.1 -189246 
111 1 32.9601 29.6644 -2.96767 0.363584 -579447 -490300 71202.2 -48085.8 -251155 -309483 
174 1 32.8248 31.4453 -1.10663 0.228763 206346 208516 443372 -353652 -119534 -106699 
2901 1 34.659 29.6169 -1.12668 0.295541 -10240.5 11923.6 353316 142481 -340833 -14233.6 
2832 1 34.6843 31.4393 -3.04044 0.229555 -14220.3 170332 163665 -477097 -9585.03 -177531 
52 1 22.6605 32.8032 -1.98121 21.3875 -91505.5 1.2709e+06 785069 165124 116016 -394579 
1283 1 24.2661 34.7084 -1.99618 5.25695 350491 1.056e+06 318204 -167809 -130521 -11049.8 
114 1 24.2426 32.6637 -0.0946695 5.08827 147807 395447 -199092 201498 -2826.69 -103566 
1353 1 23.7075 35.2701 0.307369 14.7468 451913 1.46826e+06 844799 98381.6 256911 -246664 
1357 1 26.0803 34.6702 -0.219868 0.21387 628103 904396 341276 255139 144849 153387 
119 1 26.7895 33.977 -2.57857 0.0700997 573099 119380 -250777 -210551 -216720 29318.6 
185 1 28.5182 33.9695 -0.693609 0.243887 461255 323791 586171 -137898 -17903.8 345861 
124 1 28.6367 35.6906 -2.53509 0.493264 -68767.5 515450 232473 -165849 -289389 46990.6 
128 1 31.0702 35.1226 -3.12175 5.30401 357387 298628 597050 -207487 347930 -92125.6 
186 1 30.3638 35.7687 -0.749297 0.0577271 293446 608790 467023 -241234 -416899 -194820 
123 1 29.2934 33.2138 -3.15098 6.45043 111949 414533 365931 -413799 -151845 -202378 
189 1 30.9599 33.2662 -1.23163 6.5164 319001 412186 730037 -469444 11834 140546 
127 1 32.7305 33.1589 -3.11512 0.799463 524649 278020 364002 -87527 90701 -268000 
190 1 32.8796 35.0619 -1.22307 5.556 310357 -1936.04 547606 281888 291981 40840.2 
2919 1 34.5919 33.3434 -1.16152 0.258085 -319462 157642 427896 217150 393375 -191381 
2850 1 34.5839 35.1878 -3.09719 0.470276 88378.8 405310 138196 310298 -44958.6 81437.2 
129 1 21.6482 25.0795 1.34622 29.896 -244814 461909 606653 -223842 95322 16653 
193 1 21.7937 23.564 3.26585 41.8298 -177705 -174540 820367 -373236 -609585 310186 
131 1 22.4429 22.6357 0.922353 48.6755 545995 801453 1.33375e+06 -102930 -82387 120032 
197 1 24.1108 22.6984 2.81342 17.0813 345687 313983 -376413 -262360 438635 -261511 
136 1 23.9626 24.5432 0.94894 5.0787 -961717 -711268 112850 207600 -23038.5 -259021 
194 1 23.4005 25.2393 3.30206 5.26569 -991731 -788124 -255783 -684555 165066 664626 
135 1 25.6495 22.7982 0.853062 14.3777 298319 18355.9 -264620 326159 -71594.6 90381.9 
198 1 25.6968 24.576 2.72411 6.12742 -375174 -1.02161e+06 237797 -249464 -52175.8 17561.1 
201 1 27.5221 22.6703 2.67107 15.9836 454342 195720 252363 -399623 569116 300806 
140 1 27.5851 24.5011 1.00145 0.645636 -281418 -457030 -2861.59 -461947 219454 150436 
139 1 29.1295 22.551 0.896006 17.9123 735503 456700 1.03253e+06 129355 677035 32848.4 
202 1 29.2268 24.3998 2.87 0.265674 -167255 81177.3 -113321 -164393 63037.5 361105 
205 1 31.0627 22.5767 2.9618 16.3184 1.52732e+06 639415 1.51108e+06 -141129 170265 132730 
144 1 30.9531 24.3092 1.02514 0.68624 -675317 -647286 587877 762814 -219819 -259908 
206 1 32.7289 24.4323 2.71923 0.587588 -406495 -589459 16462.2 -177332 -648.861 -53270 
143 1 32.6375 22.7085 0.922033 15.3555 -283400 -761629 652154 151304 -500376 -275838 
2937 1 34.4437 22.6785 2.92454 16.4358 980779 23368.2 988470 17770.6 125928 167888 
2868 1 34.4014 24.318 0.965183 0.45106 -73072.4 355952 224528 -574030 50835.8 -53248 
147 1 23.2287 26.9256 1.54448 5.30089 143084 -653537 621919 -87665.1 188945 303233 
213 1 25.2287 26.8893 3.36667 0.718262 -562643 -678801 -500268 -525731 452356 -333214 
152 1 25.1121 28.628 1.42069 0.251052 -116984 -339753 695489 374582 174816 -402588 
151 1 25.698 26.3536 0.977053 6.31296 541256 -570996 -92392.9 -44575.7 -13338.3 -14858.3 
217 1 27.5162 26.2807 2.81948 5.78342 -897353 -719293 90411.5 -269255 5032.4 -86472.2 
156 1 27.5382 28.1509 0.891795 5.94849 173960 209512 648180 -90240.9 8925.53 -113472 
214 1 26.8513 28.6534 3.33176 0.508559 -314820 -448234 -211151 -508230 315734 -567133 
218 1 29.2094 28.0017 2.82356 5.56099 -370248 203775 317770 140585 -11651.5 38866.6 
155 1 29.2984 26.1493 0.906231 0.552575 67377.2 -142767 470342 -544890 231639 -365810 
221 1 30.9977 26.3343 2.90649 0.473633 -313784 15165.3 286452 -78870.6 57919.6 164424 
160 1 30.9703 28.0718 0.918959 0.213721 -669251 -586488 101510 450834 -254603 -185267 
159 1 32.5591 26.2374 0.895444 0.767648 183436 -233209 -307842 198398 -455928 183623 
222 1 32.706 28.0332 2.75674 0.196277 -320414 -649105 96868.3 233382 -13282.2 34521.8 
2955 1 34.3741 26.2309 2.66543 0.63184 -23628.5 -22760.6 523984 110885 231379 186995 
2886 1 34.5082 27.9752 0.848056 0.0963653 -200707 97408.5 150250 546857 -533239 355241 
115 1 24.4254 31.0511 1.77832 5.36794 -399350 -421942 -411217 -318571 -113690 488973 
100 1 22.7267 29.285 1.84652 19.5531 -204705 220863 664388 72636.7 -185785 49736.9 
162 1 24.301 29.4279 3.67691 5.37916 -450216 -206885 -255291 -523340 275915 162978 
167 1 26.9287 30.4973 1.17593 0.582137 171423 -366759 207074 255924 -77110.9 -413797 
233 1 28.4879 30.5374 3.13563 0.644111 192013 485004 317107 -384428 90494.9 -103054 
181 1 26.1032 31.1301 3.54741 0.363633 -114364 81551.6 -312764 84320.5 142290 -58782.6 
172 1 28.6481 32.3152 1.2158 0.301938 -190888 -319261 378865 -340987 106176 28186.1 
171 1 29.342 29.8773 0.778918 5.31933 -467812 -907025 344236 -2033.82 390791 -257692 
237 1 31.0947 29.8903 2.73767 5.13588 -124365 -672183 224292 -72916.1 -232926 -86026.7 
176 1 31.0343 31.6157 0.717356 5.8523 -384013 -357353 204397 -346551 56828 -140773 
234 1 30.3129 32.2108 3.14144 0.318792 -16151.1 -360495 295645 73713.5 276938 -159391 
175 1 32.7895 29.7418 0.831356 0.151063 -32984.3 -299664 366416 -188744 17348.6 -16697.7 
238 1 32.7234 31.6133 2.70695 6.46422 -537102 -1.2101e+06 476493 -524801 66209.3 118761 
2973 1 34.5647 29.9049 2.74141 0.353995 -221211 -37421.1 6993.12 181425 89850.8 191280 
2904 1 34.5866 31.4485 0.770177 0.284091 -76448.3 39227.2 346593 130943 -236713 214442 
116 1 23.6883 33.4899 2.13656 14.1669 540468 1.25558e+06 393219 239922 -38245 34529 
1355 1 25.6037 35.3747 2.19397 5.69246 7858.8 451260 240776 77366.6 -154070 142938 
1359 1 27.9805 34.729 1.71109 0.221158 -114847 65272.3 407714 -175446 206797 -87074.2 
120 1 26.1506 32.8267 1.63987 0.368911 446911 223199 58525.1 -49532.5 172075 -96943 
182 1 27.9083 33.046 3.61122 0.645589 108939 392881 -99823.4 -82043.6 347898 -103770 
192 1 32.1151 35.7482 1.07343 0.500519 452645 241485 368524 -184949 62039.6 -57200.5 
1433 1 29.7731 34.6375 3.54255 0.26847 -186190 -207791 -256437 -458374 104445 -32762 
187 1 30.3965 33.9924 1.27052 0.268134 -191606 -425936 309435 -503712 162426 -234189 
253 1 32.1955 33.9857 3.05422 0.19067 -311195 -68996.9 802606 121771 118944 -366006 
191 1 32.8873 33.3034 0.657305 5.90644 194485 125205 413792 -256016 305453 -52410.6 
2991 1 34.5358 33.2703 2.66011 5.08088 -567307 -257550 482430 382000 15878.1 54038.8 
2922 1 34.6812 35.0219 0.747261 5.44115 67606.5 79720.8 443446 -99620.2 224998 -363959 
254 1 33.9224 35.7441 3.05574 0.381367 566396 -63158 321995 -223831 449103 129381 
195 1 23.4717 23.4448 4.95582 21.3465 -125091 -143339 -543961 -193215 -198226 80124.2 
261 1 25.0544 23.5393 7.04696 17.764 -957528 -353280 892867 -108075 -127969 410176 
200 1 25.1105 25.1889 5.25169 0.606364 -297025 -800241 -54368.4 -390017 -143652 215218 
132 1 22.7848 24.0517 7.31114 45.2071 -283684 -82048.4 1.1939e+06 324136 66319.1 617.066 
199 1 25.9187 22.775 4.53527 13.5671 630734 302067 765717 -468599 -45137.9 170678 
204 1 27.5249 24.612 4.64024 5.43163 -186829 -1.18525e+06 321012 -371561 286610 554799 
265 1 27.4226 23.0659 6.56315 12.5443 320064 -91570.4 943731 -456684 88558.7 272095 
262 1 26.6432 25.378 7.2537 0.737724 -263393 -513174 428012 -138003 -204704 360797 
203 1 29.1146 22.6892 4.64606 16.602 1.45379e+06 496882 1.25404e+06 184523 128019 514989 
266 1 29.1285 24.7559 6.68474 6.28636 165103 -421697 456049 -779833 -57550.3 410319 
208 1 30.9392 24.5632 4.76635 0.160414 503234 132181 617912 229195 -481791 230422 
269 1 30.9434 22.8526 6.65907 16.1326 892198 729511 1.03387e+06 -124012 -432224 268997 
207 1 32.7899 22.8292 4.81117 13.8144 556006 169054 830893 -348278 -110553 -74812.1 
270 1 32.6607 24.725 6.56599 0.621863 -131377 -384132 385338 221790 -161980 241064 
3009 1 34.4356 22.9426 6.67945 13.5352 -298722 -364048 -503791 -132291 202196 -261762 
2940 1 34.483 24.5421 4.72792 0.253479 146827 -355714 629374 22416.3 47600.9 184479 
2939 1 36.0517 22.591 4.9103 14.6636 916417 617771 1.14611e+06 231687 46094.6 -223306 
161 1 22.7465 27.6553 3.96591 15.2101 238078 636479 1.05017e+06 -424641 -33069.1 457110 
148 1 22.7679 25.9417 5.70382 18.3065 -239806 818674 252743 -24065.7 -316084 671577 
163 1 24.6171 27.579 5.62846 6.09538 -898012 273079 -333406 -55931.3 195132 -243514 
215 1 26.9514 26.934 5.29272 0.732071 -1.22451e+06 -230143 239078 215960 20036.9 -45811 
281 1 28.5962 27.1573 7.14796 0.536649 -243105 -504949 220417 158013 -541864 -188141 
220 1 28.6882 28.7986 5.15519 0.444121 -860914 -1.10649e+06 547748 15599.8 226230 -312636 
219 1 29.2311 26.3712 4.72886 6.26596 -1.0614e+06 -442966 -137465 40952.3 74459.9 300818 
224 1 31.0361 28.2111 4.68141 5.57495 -523766 -309324 372780 15131.8 81490.3 -1005.43 
285 1 30.9328 26.4249 6.57642 5.40037 -632068 -224668 415710 -64791.5 65319.5 111288 
282 1 30.3639 28.8999 7.19646 0.612096 -391668 -626021 577910 -628654 20422.5 -115334 
286 1 32.7571 28.1147 6.50742 6.36037 -249332 58152.1 478985 -138342 120072 -181757 
223 1 32.7765 26.3155 4.65991 0.286024 -66387.6 -149215 56492.2 -73470.1 -100400 372932 
3027 1 34.5374 26.3621 6.6664 0.28528 -101189 -28709.9 341123 96414.7 -101943 20281.9 
2958 1 34.464 28.1035 4.72998 0.279586 -612125 -165822 739753 -136201 179874 163743 
177 1 23.5762 31.7888 3.98241 12.2726 289120 669180 478797 151362 -33937.5 463967 
164 1 23.2542 30.1205 5.75438 16.1309 1.27538e+06 1.38524e+06 778523 32826.1 401021 597378 
179 1 25.3141 31.8013 5.74004 4.34427 693413 472273 -167141 271353 37563 436156 
168 1 26.311 29.4311 5.50722 1.58306 168916 -49024.7 -298352 -284198 600505 -487902 
183 1 28.0496 31.102 5.50761 0.976588 -447170 -634716 550627 -149989 593292 -550372 
235 1 30.3546 30.547 5.16007 0.250844 -865964 -1.03367e+06 978251 -181359 269585 -127153 
301 1 32.1161 30.4942 7.08616 0.22313 -715974 -225438 730469 -611635 422967 190828 
240 1 32.2205 32.1783 5.14423 0.706011 229300 276020 1.04579e+06 52608.9 184577 -237665 
239 1 32.8087 29.9025 4.50512 6.41288 -536602 -1.13126e+06 147315 -64939.2 -25160.7 34154.6 
2976 1 34.6108 31.6378 4.60954 5.61143 -394026 -532122 681684 -184681 231282 -16225.2 
3045 1 34.4589 29.9449 6.64553 6.09512 -375606 -163257 968750 -648.6 22000.9 -226684 
302 1 33.8691 32.2894 7.09743 0.274459 -220171 -1.21563e+06 683442 -262372 179238 -575713 
1425 1 23.6674 35.3764 3.95473 17.4683 771605 1.2041e+06 1.37616e+06 11124.7 51204.4 334188 
180 1 23.7001 33.733 5.96284 15.7069 450157 893092 1.02669e+06 79605.4 -233976 414814 
1429 1 27.2697 35.4968 4.00175 5.24168 66159 356682 -351149 -102875 -87360.3 -216471 
178 1 25.4407 33.5355 3.90565 5.51989 155453 236561 228266 276990 -63465.5 324578 
1427 1 25.5887 35.4627 5.79711 0.50569 75788.9 853329 590927 -317508 329025 146561 
184 1 27.2473 33.5291 5.85834 5.59273 185327 544640 -548047 196749 -238860 11834.9 
1431 1 29.0219 35.4147 5.86111 5.45949 314485 362600 -294696 165352 -473311 60430.4 
1435 1 31.5616 34.7524 5.40854 0.469038 562571 680123 421400 -270070 349944 -223303 
188 1 29.7545 32.9103 5.46611 0.453699 361904 22506.4 196162 54786 505975 -381943 
255 1 34.0386 34.0841 5.0274 0.712379 77847.2 -392672 931973 47561.1 47864.9 -348680 
2994 1 35.8159 35.6977 5.32666 1.43561 -283361 -703122 1.15405e+06 -335030 -42353.6 -45287.8 
3063 1 35.6597 33.902 7.07508 0.684944 -334652 -622162 672820 37513.6 241987 -52288.3 
196 1 24.1731 24.3235 9.59543 13.7161 447825 745265 2.46967e+06 -30582.1 165594 -97037.8 
263 1 26.5154 23.7148 9.06204 13.2382 1.03777e+06 -391179 987879 -191116 -41731.5 178872 
329 1 28.4975 23.5202 10.9104 17.809 1.53636e+06 148991 1.20381e+06 -229715 39653.6 -4001 
268 1 28.4369 25.345 9.07038 0.201835 -377830 -521155 260583 -499878 124079 -136063 
267 1 29.1448 23.0013 8.49759 13.1786 1.32594e+06 105615 849317 -219774 43403.1 156406 
272 1 30.8827 24.8035 8.53164 5.83256 -144930 -871544 -559976 10921.6 29829.5 -178882 
333 1 31.0376 22.7308 10.1491 13.5314 895537 489432 997723 -473164 224153 85197.6 
330 1 30.3566 25.1965 10.8205 0.221339 273412 205726 -555191 -114945 347294 -122114 
334 1 32.721 24.5158 10.2183 6.11511 -298267 -234583 636734 -208410 85236.5 39759.9 
271 1 32.608 22.7597 8.30638 15.6216 17202.3 753821 -107533 -138076 -120323 10268.6 
3012 1 34.5154 24.5475 8.48747 0.222076 244472 -785960 -293258 -320076 374519 -10780.9 
3081 1 34.4576 22.6809 10.043 15.5684 1.13453e+06 72562.8 926818 62382.5 324812 251170 
209 1 24.2928 25.9224 7.55536 5.48379 -691321 476700 470915 -237338 -50097 72519.6 
225 1 23.3505 28.4386 7.56746 16.4086 857500 992332 -185781 118585 70010.7 296163 
212 1 24.1483 27.6774 9.6694 8.57065 416958 1.21564e+06 892262 181335 -373707 130874 
210 1 26.0602 27.7799 7.68512 4.0963 558041 -192106 1.10787e+06 -624968 -381430 -334280 
211 1 25.9683 25.991 9.76985 6.67935 -40868.7 -230550 1.24108e+06 -242970 -41893.8 -502286 
216 1 27.7483 27.6903 9.70606 5.65405 -147128 -395283 951510 156263 45250.2 -128589 
283 1 30.1565 26.9788 9.00823 0.935137 -47302.8 -1.19092e+06 -113875 -24952 -86833.1 -157199 
349 1 32.1713 26.9583 10.869 0.171638 -509082 547378 253330 -115643 507688 -286535 
288 1 32.0775 28.8096 9.03002 0.156128 565304 -133925 630118 385459 -157402 -7133.37 
287 1 32.7392 26.458 8.56739 5.78655 -246373 -524210 -116425 -759790 107646 -80973.9 
3030 1 34.4624 28.067 8.53066 5.94395 -323919 -248511 255046 -675151 153125 -177000 
3099 1 34.4952 26.2977 10.4016 6.19589 -195484 193252 -19569.2 126998 -9792.13 -75124.4 
350 1 33.9208 28.6775 10.8981 0.206556 401631 216873 186454 -158389 -53930.5 -334537 
241 1 23.495 31.9941 7.61895 18.1998 493150 584045 932436 93126.6 112707 647960 
228 1 23.4689 30.1469 9.29853 15.3602 421499 465455 97490.7 -7166.33 267715 119001 
226 1 25.2292 30.1745 7.5878 6.65668 104724 204184 -538897 313454 440284 344216 
243 1 25.3576 31.9098 9.498 5.31127 -182176 316796 -635923 -113778 562392 18420.6 
229 1 27.8168 29.3973 7.64473 2.19365 234096 -417074 1.46698e+06 -370633 -170179 -123310 
245 1 27.1314 31.8398 7.71869 7.44991 -76527.3 -471241 -1.00376e+06 94631.3 38379.2 131405 
227 1 26.025 29.338 9.728 5.2953 375917 367354 235274 418399 -34475.7 273667 
232 1 27.9115 31.1302 9.83544 5.74931 147505 -303363 -55327.3 588059 -280071 662136 
230 1 29.6699 31.1797 7.65366 2.56695 450349 -321080 1.32282e+06 48241 -163040 -31659.7 
231 1 29.5572 29.4366 9.55326 5.10969 267047 238116 901107 327591 364771 72741.7 
236 1 31.458 31.1559 9.45048 4.82437 451831 262090 864879 198100 -87742.1 40214.7 
303 1 33.9334 30.6169 9.11869 0.625688 -310784 -51752.6 454661 81843.1 571497 -262997 
3048 1 35.7664 32.2276 9.10732 0.496586 -263336 -508212 -123325 -233549 43026.8 -283392 
3117 1 35.8269 30.4648 11.0426 0.821114 518842 -709345 154714 -249183 40502.7 531989 
1497 1 23.8374 35.642 7.62102 13.908 135968 517128 565683 -265173 54042.7 -147882 
244 1 23.6204 33.7923 9.45245 15.3636 -417.996 1.10518e+06 1.20746e+06 -86275.9 273611 -133111 
242 1 25.4319 33.6659 7.75611 0.286194 -316180 401410 352053 278243 -71444.7 371097 
1499 1 25.4166 35.457 9.68603 0.728237 -127732 -1502.8 328118 -108239 -2596.17 -277053 
1501 1 27.2255 35.5012 7.71137 0.339325 426905 288172 566344 241277 -121581 -11247.2 
248 1 27.2749 33.5452 9.52683 6.01227 -462777 -36786.5 -144210 -192441 107137 -308657 
246 1 28.8662 33.5772 7.63965 6.69889 -674224 -113120 -1.61761e+06 65902.2 -173041 199940 
249 1 31.4247 32.998 7.61959 3.97011 602312 431246 1.7085e+06 -293611 -97053.3 63527.7 
1505 1 30.7063 35.3937 7.60415 7.47109 -20618.1 -490709 -1.03593e+06 840412 -244921 -183519 
1503 1 29.0824 35.3177 9.57718 5.29978 -436425 -343686 -237036 141829 212626 -111876 
247 1 29.6632 32.9143 9.79161 5.20276 -525709 -352511 65767.8 -63414.5 -446863 458337 
252 1 31.432 34.5667 9.8121 5.74481 -183946 -103872 365387 150301 -391588 162205 
250 1 33.359 34.6021 7.55163 3.08915 518775 -308909 1.62327e+06 -50086.4 122175 86864.1 
251 1 33.2993 32.9782 9.43339 4.71437 540212 -314488 466062 239438 -25024.2 -74502.1 
256 1 35.1885 34.6688 9.50486 4.87073 -145640 35858.5 733871 183445 120795 129520 
257 1 23.7905 23.4928 12.1166 50.4681 -249189 403969 1.64358e+06 40501.6 205467 316667 
260 1 23.7139 25.3346 14.1424 19.0644 175565 209392 1.3964e+06 130170 163794 544753 
259 1 25.4813 23.6273 13.9952 16.2257 327153 154705 463744 99394.7 706039 47461.9 
258 1 25.9842 24.1136 11.6134 8.609 11380.7 286798 755101 -248224 274041 12853.9 
264 1 27.9146 24.1281 13.3829 9.08344 810350 590356 947985 -304993 -463352 29194.6 
331 1 30.3873 23.3013 12.6505 17.4574 522153 3408.96 917800 -392582 -272092 -38991.3 
336 1 32.1266 24.995 12.7711 0.330997 -145999 40272.8 757639 -152894 137487 -85396.9 
397 1 32.1108 23.1171 14.4347 18.9596 846678 326170 783672 -131316 -97777.6 205129 
335 1 32.7823 22.6332 12.0547 15.5069 664197 372275 861064 -218925 -8418.04 -49411.3 
3153 1 34.5636 22.5312 13.7968 14.6978 679582 81571.8 732021 -234287 -135151 280336 
3084 1 34.633 24.2928 12.0509 6.85894 -115881 -171677 71702.8 -518116 -279804 289158 
398 1 33.967 24.8723 14.6241 0.425102 -280246 595615 427453 158704 161056 -143552 
273 1 24.1277 25.8403 11.6933 11.2213 577856 735798 1.09369e+06 -13193.3 -33689.4 -130753 
276 1 24.2817 27.6462 13.6231 10.5853 401575 613398 1.33536e+06 395569 226716 -167887 
274 1 25.9816 27.6645 11.6533 0.411995 493893 172940 167262 142811 123382 216232 
277 1 27.8657 25.8354 11.4914 5.9404 969869 100151 329429 99160 -22682.6 -57507.7 
275 1 26.0309 25.9996 13.425 5.83216 -270540 -474980 558105 -159743 179990 345534 
280 1 27.9756 27.4511 13.4339 0.520706 193349 359456 423817 -263811 245641 -19990.6 
278 1 29.8226 27.5835 11.4189 5.57643 615846 582617 744550 420855 73113.6 -276710 
279 1 29.8737 25.6821 13.2497 5.61624 -381254 195571 733311 -78259.9 287283 -205100 
284 1 31.6233 27.4723 13.3239 5.70073 -361389 321674 705848 -25498.3 322140 -298665 
351 1 33.9599 26.8082 12.8034 0.235101 -212630 949721 265781 145307 -45913.2 -205423 
3102 1 35.7653 28.6827 12.6484 0.569593 -491170 9312.88 250553 -93810.5 198799 442775 
3171 1 35.7349 26.818 14.5084 0.318483 -407489 24803.8 104798 110949 -199243 -359529 
305 1 23.708 31.8877 11.2533 14.3409 -91076.8 666327 680366 -404398 626795 13374.7 
289 1 24.2643 29.4475 11.5307 9.35753 453933 871928 1.071e+06 338682 194586 -176329 
292 1 24.452 31.012 13.6223 10.2991 413870 761929 1.23024e+06 88793.2 186929 276391 
291 1 26.3337 29.3788 13.5097 0.564061 164440 21193.4 308975 99791.3 284615 196534 
296 1 28.0144 31.1439 13.6285 0.330714 -268538 -365072 9515.46 -698239 278245 427842 
293 1 27.9467 29.3244 11.6226 0.232561 450464 549528 220074 144539 421086 121688 
290 1 26.2065 31.1423 11.7172 4.97183 350511 273727 188932 56768.3 -15057.5 243029 
300 1 31.6273 31.0923 13.5269 0.236057 -244251 -252017 -434811 332458 -125519 -315449 
295 1 29.848 29.2114 13.425 0.308304 633659 606964 628962 101395 158602 130654 
297 1 31.574 29.5453 11.5053 5.46177 -254308 335199 833498 -84140.5 102184 -183256 
294 1 29.791 31.1588 11.6745 0.302223 -431636 -389810 828892 69238 -103295 6327.94 
304 1 35.1531 31.0807 13.4336 6.03981 218679 -206362 82266.1 -55134.2 273007 -536026 
298 1 33.2829 31.1904 11.4003 4.80965 -344821 -165497 675710 -690332 358548 -256616 
299 1 33.3611 29.2655 13.275 5.40267 183955 550183 637951 -52063.9 96847.3 -255198 
308 1 23.7773 33.4391 13.2302 15.5985 127847 787335 813490 37006.4 190735 224558 
1569 1 23.7525 35.3224 11.5513 15.7834 -104715 891447 910212 209530 162295 -117468 
1571 1 25.6286 35.2392 13.2418 5.87377 -784843 -287777 -292657 277744 -95915.7 1593.38 
309 1 28.0147 32.8699 11.8598 6.0082 68737.3 -464988 280670 -178094 -93276 465081 