ITEM: TIMESTEP
1000000
ITEM: NUMBER OF ATOMS
5780
ITEM: BOX BOUNDS pp pp pp
8.2542112984254168e-01 7.1474578870173019e+01
8.2542112984254168e-01 7.1474578870173019e+01
2.9209564335925303e-01 7.2007904356656297e+01
ITEM: ATOMS id type x y z c_csym c_2[1] c_2[2] c_2[3] c_2[4] c_2[5] c_2[6] 
1 1 21.8448 21.6968 0.34965 29.9463 809893 631153 1.25479e+06 66649.4 -2787.76 -236541 
3 1 23.5561 21.7379 2.2223 15.4732 131436 276546 770763 16448.4 -698931 50535.6 
69 1 25.2751 21.7093 3.84512 16.7845 446899 -62038.9 163024 -152059 -427569 279902 
7 1 27.1438 21.527 1.96222 16.4963 1.54073e+06 675869 1.46686e+06 -73111.8 -228087 167323 
11 1 30.8373 21.5984 2.09468 15.6319 1.21805e+06 306248 776104 -236309 -185080 -80528.1 
15 1 34.4122 21.4196 2.18992 11.1738 740426 224370 324912 1522.04 -64647.1 -583050 
2721 1 36.0459 21.4256 0.307107 15.7502 1.1634e+06 95848.7 811723 140906 -133065 -241018 
13 1 32.6716 21.3816 0.351318 11.2417 1.05826e+06 648205 931034 -128945 161544 -286125 
4 1 21.7162 23.4117 2.07423 15.5856 86305.1 -546321 -88429.4 297514 343437 360762 
81 1 21.7487 25.142 3.87687 13.9916 -480856 309323 183200 235314 97768.5 438985 
17 1 21.6338 25.106 0.417384 16.4752 348581 532334 268880 382692 -38835.3 328807 
19 1 23.4976 25.3107 2.16206 0.333806 -4869.95 201493 -250116 -279427 151102 -515781 
8 1 25.3786 23.4876 2.18341 0.410339 -20912.2 -393939 -50453 -609602 -529025 192465 
2 1 23.5435 23.5195 0.396997 0.362799 -525690 -237435 317898 -277807 124738 105200 
23 1 27.0876 25.2034 2.03901 0.136761 -529371 -397171 177570 -614033 16449.3 84322.1 
12 1 28.91 23.4136 2.07263 0.249399 79412 275530 161796 -134064 -227131 -165063 
89 1 28.8891 25.1775 3.82243 0.183586 12193.1 -123979 -58798.6 -282588 -1714.19 -90560.6 
70 1 27.1478 23.3709 3.8267 0.327825 -638917 -342014 14164.3 27087.2 -266978 281646 
27 1 30.7513 25.1111 2.07741 0.230789 87599.5 402151 642255 -141627 92594.6 -91901.3 
93 1 32.5587 25.1035 3.86778 0.250645 330910 343003 -436277 282690 -47914.8 483609 
16 1 32.6182 23.338 1.97343 0.596715 -39467.7 114166 243632 -292573 -14657.8 -117568 
31 1 34.4112 25.1539 2.01908 0.134361 64589.2 321154 -44116.7 -35811.9 -85576.1 157105 
78 1 34.4146 23.248 3.74959 0.428632 608277 -181310 165231 -42311.6 -7833.04 1083.22 
29 1 32.6247 25.2524 0.301332 0.247694 236117 209582 258460 -158021 -159867 187425 
20 1 21.518 27.0132 2.27127 11.6721 769714 933498 1.19723e+06 11128.7 -245739 91811.7 
33 1 21.6618 28.7532 0.398978 16.9642 326665 1.09762e+06 1.38449e+06 221402 -51512.7 -14611.5 
24 1 25.349 27.0901 2.16506 0.4317 234395 287146 177119 -123100 -132152 -143234 
35 1 23.417 28.8135 2.24566 0.394746 -431054 -270066 -297468 -42518.7 -31281.1 -174841 
18 1 23.4976 27.1022 0.330631 0.360533 609260 424542 668133 332065 -49059.2 -128836 
37 1 25.3422 28.8547 0.295615 0.232678 541497 78653.1 224591 -100878 -69900.2 -100346 
28 1 28.8987 26.8509 1.8911 1.01227 -433446 -580309 -472483 133143 443180 -238549 
39 1 27.2745 28.7211 1.97685 1.03635 -253206 88624.1 -128019 -136081 -12720 298089 
105 1 28.8809 28.6563 3.86332 0.305383 -713147 -353918 278394 -308163 -342012 36028.3 
43 1 30.6793 28.8513 1.98132 0.61161 -199676 -215634 -509818 266421 -13704.2 -212584 
32 1 32.51 26.9461 2.18838 0.548545 14867.9 303001 -218878 -107326 74731.5 -168876 
90 1 30.6611 26.9364 3.87569 0.429301 40475.6 -380347 -336157 141650 217504 229374 
26 1 30.7376 27.0295 0.326482 0.284593 -479530 -323717 -217807 -117056 253311 -310890 
47 1 34.3421 28.9142 2.05229 0.432149 78646.3 -369287 -126463 -72673.2 145739 430166 
94 1 34.4023 27.0965 3.79591 0.495742 -329686 564387 -238031 -56253 129131 -5826.96 
30 1 34.273 27.0632 0.400761 0.548803 86271.3 -146785 69652.1 -247991 31535.3 53441.3 
36 1 21.7322 30.6745 2.08543 15.343 -16491.2 893567 553418 188757 341599 -300762 
49 1 21.5983 32.6021 0.386702 15.8649 427745 1.03584e+06 1.04744e+06 -359277 182204 69794.4 
40 1 25.2173 30.5044 2.12159 0.668853 643518 433253 227452 -332464 -167953 78231.7 
51 1 23.5465 32.5287 2.19591 0.396381 -526323 -326813 44917.9 -217016 358185 4263.04 
34 1 23.4444 30.6357 0.404346 0.23483 -12749.3 1.01336e+06 113868 -47225.2 122029 41070.5 
53 1 25.3486 32.5013 0.429251 0.45013 99123.5 46499.9 8340.63 111594 -8478.99 -388077 
44 1 28.9647 30.5964 2.07123 0.210849 -527236 -567376 -31923.6 278619 -21654.7 46199.6 
55 1 27.1459 32.3446 2.14307 0.150749 174233 444374 131520 89729.1 -172632 -274027 
57 1 28.957 32.4322 0.357592 0.0779123 -363682 -815931 95092.2 -395299 287235 -53438.9 
38 1 27.1931 30.6487 0.330676 0.152121 21611.7 -175462 -222323 -67072.1 -463437 -102462 
48 1 32.4761 30.633 2.18986 0.160779 -12571.5 -153510 503439 246603 96149.2 273836 
59 1 30.7625 32.3726 2.28311 0.555151 -262839 -10524.3 232976 191942 -185105 -212370 
42 1 30.6832 30.667 0.304246 0.119494 -584628 -575108 -533479 23888.1 254966 356929 
61 1 32.4595 32.437 0.305234 0.164954 370381 369236 193765 25668 68856.6 25289.8 
63 1 34.2927 32.435 2.22334 0.12953 688399 580235 788499 -484354 -220712 -233818 
46 1 34.3068 30.6189 0.333863 0.0895337 -77692.9 -520584 -213171 113982 7448.38 406329 
52 1 21.8566 34.3274 2.20999 14.0566 -429497 160452 139868 -37908.3 -74208.6 -120242 
1281 1 21.6263 36.0035 0.346221 16.9841 210717 791503 499091 -188550 215058 324787 
50 1 23.4918 34.1816 0.358373 0.322331 -702237 21542 -390036 -84463.9 106170 272431 
56 1 25.2857 34.1952 2.15767 0.135107 92567.9 -675658 -417299 -739416 -127408 -485631 
1285 1 25.3134 36.0051 0.401042 0.192181 376540 213908 -40031.2 15672 54765.2 -178611 
1283 1 23.4679 36.1427 2.16514 0.607553 75086.7 21605.3 478421 -587995 22160.7 204091 
60 1 28.9097 34.1409 2.21207 0.266251 492423 456027 231126 -38679.3 474.166 -269304 
1287 1 27.034 36.0423 2.25967 0.336367 -507653 202773 -315716 1283.04 87918.6 6949.16 
1289 1 28.8752 36.1298 0.467652 0.297277 -200647 -140095 53628.8 349118 -112639 -296268 
54 1 27.1128 34.2513 0.299677 0.244317 18916.9 27301.7 243271 -96101.6 209240 126057 
64 1 32.4251 34.3158 2.14204 0.351274 571894 55026 -103838 -101407 -96161.1 184392 
58 1 30.6264 34.1936 0.353521 0.467939 -212968 71728.3 183842 -242364 -429441 197522 
1293 1 32.498 36.0181 0.422318 0.414618 -185490 200222 -382476 253026 -594699 268388 
1295 1 34.3268 36.0541 2.06027 0.171515 -272687 105114 -684856 35515.4 -122890 -219489 
4242 1 36.0748 36.1317 3.85759 0.17628 -103273 -338581 31161.1 445060 -144056 -50467.7 
2778 1 36.0488 34.1816 2.13865 0.25821 -304999 153088 93601.8 10791.5 -123482 74328.3 
4161 1 36.0794 36.1097 0.292579 0.168795 -363277 -671320 -557746 220499 160774 -6261.27 
65 1 21.7062 21.8691 3.95844 26.8347 526727 277958 798155 -15477.6 -14859.6 -98291.8 
67 1 23.5455 21.6084 5.66647 16.1605 618093 369224 543265 -271037 335728 -33273.3 
73 1 28.8051 21.5624 3.92123 17.2883 961605 220311 1.50853e+06 29649 -87504.5 31903.9 
71 1 27.0574 21.6943 5.7801 15.4474 777726 170762 986524 417590 -100489 -105526 
77 1 32.5306 21.5292 3.96463 16.0523 842988 273812 853845 -59736.3 60145.1 -371241 
75 1 30.675 21.5986 5.74773 16.9648 870087 -120271 594546 134175 116597 72449.6 
141 1 32.681 21.587 7.36217 15.6696 929873 320752 1.08936e+06 -142708 -51662.5 36635.4 
79 1 34.4852 21.6059 5.65677 15.7197 267002 136001 507906 -179401 137215 53789 
68 1 21.5581 23.5106 5.70232 18.0091 670596 512023 392894 -229756 87667.7 18628.5 
66 1 23.516 23.5217 4.05015 0.513711 -913664 -1.09122e+06 222559 122757 -143317 -140695 
85 1 25.3533 25.1823 3.94734 0.217275 -22759.5 -218912 -177258 -83365.6 -164128 -205249 
83 1 23.4351 25.2948 5.75285 0.359321 -270688 -301794 -746497 -258558 -474642 -75569.9 
72 1 25.3429 23.4173 5.73565 0.35894 -370118 -260382 -89660.9 78318.8 -4863.44 -162606 
130 1 23.5655 23.4077 7.42473 0.709495 -946717 -1.01612e+06 511826 -1.24629e+06 378748 75021.4 
87 1 27.1186 25.2122 5.7289 0.136816 -272853 -96068.8 -8624.91 -234813 -402684 9452.66 
76 1 28.9276 23.4802 5.71945 0.377259 219703 -20902 -26534.1 333457 147976 -36731.8 
74 1 30.6273 23.2323 3.95325 1.1675 342769 -126381 -41473.9 36888.6 -75377.1 169651 
91 1 30.8213 25.3137 5.58318 1.0763 -4947.81 -182263 -559452 97810.4 -44017 467198 
80 1 32.6067 23.3574 5.56708 0.38929 322632 -756177 -528360 -122933 239029 -59497.6 
157 1 32.5715 25.1022 7.38087 0.33486 -873539 -174279 197060 -526408 22267.7 -11259.1 
138 1 30.876 23.4373 7.36024 0.812357 -1916.25 -227359 166473 -516460 -304997 -339274 
95 1 34.3431 25.1887 5.64845 0.236927 -19809.8 609548 502891 -216067 -172306 -52109.2 
97 1 21.6654 28.7896 3.96923 16.9771 -128606 712976 488936 -231527 46800.3 -521640 
84 1 21.4865 26.9422 5.79175 11.9532 725977 1.46274e+06 1.596e+06 57565 -180662 18804.8 
101 1 25.3195 28.7832 3.91817 0.160702 327658 -623475 37993.2 -88357.3 -446198 -225582 
82 1 23.5073 26.956 3.93157 0.335064 129454 -247786 -250610 -151005 -276472 59791.5 
88 1 25.2283 27.0115 5.75829 0.0698078 31901.8 -176631 2412.84 -213020 -377473 174485 
99 1 23.3531 28.7599 5.83551 0.363435 -318074 27803.7 70393.6 217490 -321034 311924 
86 1 27.147 27.0454 3.91865 0.309988 -329973 -295452 78327 -402057 -430252 -16138.9 
103 1 27.118 28.7568 5.80817 0.243866 -189182 -528920 -534658 -222883 -179890 186452 
92 1 28.8951 26.9216 5.75929 0.208707 -832682 -556613 -150719 -484465 89709.4 49194.6 
109 1 32.5444 28.8063 3.88119 0.186835 370445 -879481 114064 372720 161061 421187 
107 1 30.6301 28.5959 5.74998 0.727192 -272875 -443272 -282056 118768 -10006.8 263815 
96 1 32.6338 27.0503 5.55053 0.996304 -327097 -210090 137212 -100467 -3478.7 298234 
111 1 34.4979 28.7091 5.7633 0.833616 -332442 -909355 11938.1 86730.3 -122956 -138613 
2814 1 36.1447 26.9874 5.61957 0.383578 -165922 -50552.6 227266 408967 321319 402902 
113 1 21.7194 32.3618 3.90856 10.26 117158 785164 684573 129438 -7691.82 -131857 
100 1 21.6684 30.5707 5.71422 16.3734 37297 512040 658878 139704 202418 -300207 
117 1 25.3512 32.405 4.02574 0.342961 410719 291092 357625 -218543 -484313 193835 
98 1 23.4261 30.5314 3.97117 0.305877 -613693 181260 -123662 67266.5 -91863.7 -310505 
104 1 25.1831 30.5356 5.72191 0.303883 288806 179317 -427727 -182589 -200556 356947 
115 1 23.3137 32.4704 5.8463 0.772594 -417101 -340683 -34469.7 242424 -235138 140922 
102 1 27.1252 30.4707 3.9962 0.247008 175393 357416 745923 -258903 -120955 323766 
121 1 28.924 32.2965 4.04467 0.199403 403048 473167 307762 -10353.7 -229037 209667 
108 1 28.9332 30.423 5.73599 0.347476 -399302 -180699 -134760 -374925 -128090 538270 
119 1 27.0045 32.3828 5.83703 0.166776 223928 375265 -189689 -105435 -442690 176300 
106 1 30.707 30.4331 4.02482 0.498358 -92203.8 30133.1 35497.9 299624 470503 -16276.7 
125 1 32.4195 32.4634 4.08914 0.425975 -350853 302601 -121426 222110 -252349 -49887.8 
123 1 30.6678 32.2598 5.79374 0.387385 -279588 453913 -351699 -280173 -215117 196984 
2847 1 36.1235 32.4275 3.97133 0.0983674 -319535 -29216.3 362198 -14627.1 -233707 106688 
112 1 32.6254 30.5307 5.7893 0.629384 -576097 167647 -559680 -103956 204578 38929.7 
110 1 34.2656 30.6721 4.08772 0.703961 1351.53 224088 -161606 -267964 381635 -129358 
127 1 34.2491 32.4006 5.80715 0.229729 -194024 -201117 -439433 -231935 -95506.2 -127982 
116 1 21.6763 34.2091 5.72108 16.467 -391341 160650 445168 499175 -146852 497434 
1353 1 21.6219 35.9891 4.06058 9.96806 342231 255566 346321 2998.69 -276871 159436 
1355 1 23.4635 36.1041 5.721 0.165686 -108506 -450572 -619665 -198437 -126676 191285 
114 1 23.5125 34.2214 4.02938 0.273737 -618797 91767.1 -486217 -132723 -310742 -281897 
120 1 25.2593 34.2504 5.76589 0.0909902 -702212 -188264 -948720 -12071.4 -278244 157642 
1357 1 25.3563 35.9345 3.98955 0.554962 -472814 -19265.1 -697493 -13471 140757 84061.1 
118 1 27.077 34.156 4.03952 0.185943 -207398 -331904 37488 -55514 45294.1 6233.6 
124 1 28.8552 34.2254 5.83069 0.186773 207121 437967 -286419 -13166.9 -458255 -286843 
1361 1 28.884 36.0533 3.9047 0.235271 -12088.9 78751.5 -103156 116664 -59379.1 -82300.4 
1359 1 27.0298 36.0393 5.73029 0.151564 -558980 -248361 -282125 -49432.6 -351786 -47367.2 
122 1 30.6772 34.2497 3.99956 0.0946371 159245 151183 166780 357267 -145928 -404284 
128 1 32.399 34.2437 5.88915 0.505935 504221 -132811 410250 230094 -219265 46587.9 
1365 1 32.5416 36.1015 3.9203 0.147155 -108644 157546 -194315 53412.3 -225286 -479226 
1363 1 30.7469 36.0811 5.69815 0.388613 -73661 -146282 75539.7 361961 -160416 -91190.3 
126 1 34.2915 34.2095 4.01556 0.229911 513999 231613 294864 97447.1 -130845 -346188 
1367 1 34.2102 36.044 5.73388 0.302138 -293567 159899 -82382.8 352776 -640713 -257004 
2850 1 36.1053 34.3415 5.73425 0.196489 -156734 97294.1 -653176 188156 -50600.9 -242982 
4323 1 35.9678 36.1144 7.418 0.87811 -345717 -130374 -480483 34486.8 282370 -353679 
129 1 21.9265 21.783 7.477 23.2191 -306639 -127262 654108 -490913 197189 -108636 
133 1 25.2176 21.4659 7.59871 16.3877 976602 762361 799585 197403 145568 -199699 
131 1 23.5413 21.5588 9.33015 16.8324 -96436.9 282372 669996 251319 -77607.3 -35057.2 
137 1 28.8354 21.6899 7.50712 15.625 450359 430839 307711 203966 -134114 -13675.3 
135 1 27.0879 21.5441 9.23949 16.42 843992 722356 806167 39991.7 -28522.4 216768 
139 1 30.6061 21.6285 9.22649 15.9994 1.47005e+06 482900 1.48227e+06 34680.4 -483606 -210140 
143 1 34.4623 21.5777 9.2003 17.4843 1.21553e+06 320382 965375 -63998.1 -37684.8 194779 
205 1 32.6337 21.5782 11.0327 17.6222 1.36334e+06 213411 1.06875e+06 24783.7 -117466 -97507 
145 1 21.6767 25.1673 7.65948 15.2268 335806 1.03019e+06 957050 -275222 -147364 67787.9 
132 1 21.8919 23.3614 9.42289 14.5423 -100653 1124.77 358073 91003.4 -496351 -225401 
149 1 25.1388 25.2258 7.51072 0.582959 -189847 -525026 -101576 -258608 -115527 -41524.2 
147 1 23.4943 25.2781 9.40381 0.367928 -982600 -270133 -517784 -166878 -79355.2 -91164.2 
136 1 25.2834 23.4119 9.36494 0.169525 588119 242004 329784 -102889 56221.7 -82738.4 
134 1 27.0678 23.5071 7.61173 0.483405 -216008 -76364.9 -112952 -81225.8 -241616 29056.8 
153 1 28.8646 25.1475 7.54464 0.373189 212856 -428730 -241514 -341978 -271248 259880 
151 1 27.0725 25.2757 9.41681 0.281647 -51467.2 -632477 -438276 191700 99735.6 32911.7 
140 1 28.8736 23.4777 9.29916 0.387802 209846 -324591 -79271.3 120637 -408807 -95977.5 
155 1 30.823 25.1272 9.29679 0.399521 -368451 -75235.2 -487867 -42776.3 -615562 -18876.2 
144 1 32.5187 23.3012 9.23225 0.393381 171484 -459161 100457 87331.3 -173670 12541.7 
221 1 32.4922 25.1531 10.9426 0.43499 -448497 125813 -823669 -27385 -378838 230433 
142 1 34.4577 23.349 7.49599 0.29743 546218 -370631 181740 -153245 -39565 78459.9 
159 1 34.2985 25.1335 9.2618 0.267569 314372 287906 -208475 -99601.6 86805 302471 
206 1 34.4509 23.3855 11.0025 0.140658 314909 -270887 109947 -322168 2547.64 13536.2 
161 1 21.6067 28.7431 7.6235 16.8873 -65831.7 920024 573031 324599 -157382 95123.8 
148 1 21.7092 27.0395 9.44218 15.3117 -374915 -196976 171956 -272704 114309 289217 
165 1 25.2101 28.8421 7.51259 0.31939 126340 -229322 276219 -190165 -191143 445016 
146 1 23.3437 26.9996 7.57728 0.187452 -497586 -700774 -215172 213239 234503 215436 
152 1 25.2828 27.0362 9.29862 0.405141 -376352 -184125 -29241.7 -550810 63604.1 -34871.7 
163 1 23.2856 28.8734 9.40388 0.597239 -235714 76831 191723 -374578 -478686 -69087.8 
150 1 27.0545 26.958 7.5136 0.138801 -107926 -51676 -353465 -16727.4 210643 92736.6 
169 1 28.8892 28.7214 7.53275 0.108916 33312 -84548.3 -579622 -256251 -156320 71347.7 
167 1 27.069 28.6687 9.42462 0.716413 -282308 -246924 277573 -617548 -195716 256176 
156 1 28.938 27.0026 9.41211 0.294931 -3162.76 -243889 -29535 -149938 -469204 251054 
154 1 30.8161 26.8809 7.51781 0.574935 335147 -369152 -100809 -172376 -395169 252807 
173 1 32.4197 28.739 7.57316 0.662435 96165 -358934 110430 13971 159473 270023 
171 1 30.6962 28.7856 9.33908 0.0885841 -656051 -78242.5 -311854 -88791.4 318078 258931 
160 1 32.4851 27.0423 9.38624 0.532447 -42622.3 -380867 -244128 -25021 -357465 514157 
158 1 34.2731 26.9418 7.50364 0.390183 265132 -17141.2 206746 67210.8 -133322 316908 
175 1 34.4016 28.869 9.33593 0.307308 -83907.7 193454 -192983 -9781.3 96265.2 134457 
177 1 21.4869 32.4297 7.48638 19.5503 523626 1.00491e+06 629390 2633.99 268646 -149676 
164 1 21.5285 30.6549 9.36063 11.9179 166278 1.14363e+06 1.35391e+06 176116 -237602 -175270 
162 1 23.4475 30.6339 7.57231 0.328686 235810 45220.2 428936 -173977 109990 92586.5 
181 1 25.1603 32.3927 7.59576 0.16523 -91890.3 154282 427456 -344915 -64930.2 -39827.6 
168 1 25.2328 30.6591 9.54105 0.972547 705855 293897 243755 -268740 -82445.4 131636 
179 1 23.2868 32.4922 9.3523 0.213782 -160926 114732 497890 267574 2451.97 -221818 
166 1 26.9548 30.532 7.55718 0.304647 160890 -92702.9 16030.9 -359558 -539350 -192724 
185 1 28.8194 32.3874 7.60094 0.123712 -270270 544808 70017.2 -377101 91062.3 488893 
172 1 28.736 30.5265 9.29364 0.625057 242662 -563672 -330131 118435 -83206.7 296238 
183 1 27.0751 32.3995 9.27805 0.604896 -161709 177776 191571 7720.45 145408 71311.2 
249 1 28.937 32.3521 11.0346 0.787739 3369.97 -1906.18 -101772 -34791 -210701 271701 
189 1 32.4492 32.3954 7.48672 0.33193 -199637 -210873 -754165 -252313 123250 376012 
170 1 30.6988 30.5262 7.5616 0.104315 -286149 -405796 -349635 -30931.8 -551328 364487 
187 1 30.6691 32.3809 9.26564 0.29946 -95681.2 258311 -285018 239657 113825 174003 
176 1 32.4475 30.648 9.24299 0.315894 -224633 -347258 -403894 2308.52 -433298 22378 
174 1 34.385 30.5376 7.48683 0.27071 40541.6 -267429 -734715 247508 -101617 -87232.2 
191 1 34.405 32.312 9.1724 0.853558 166034 -682602 -326823 82682.1 81551.4 421722 
238 1 34.348 30.7126 11.0226 0.194013 -470270 -684711 -999237 217546 27158.4 -231959 
1425 1 21.6042 36.1379 7.48805 15.6688 -162925 687692 1.16768e+06 -501749 -128806 124732 
180 1 21.6054 34.2234 9.16976 14.8898 -297323 458386 582768 264307 -206591 -270020 
178 1 23.4198 34.32 7.46708 0.309998 -157806 364495 -124808 92462.5 76073 -66137.8 
1429 1 25.2622 36.1318 7.54087 0.306828 137680 -339996 -323807 -1520.24 -335434 -140077 
184 1 25.215 34.2673 9.32389 0.19764 529922 183842 -43392.3 -296264 285270 114246 
242 1 23.238 34.3772 10.9932 0.700458 -723450 -290007 -401513 338719 115952 165388 
1433 1 28.8512 35.9901 7.52311 0.241744 78716.1 -496757 60897 648238 -60959.7 -105330 
182 1 26.9254 34.2454 7.53286 0.33412 -40724.1 -150607 -418418 27262.8 48965.3 -75071.9 
188 1 28.7466 34.3391 9.50375 1.27198 -259073 -272494 44921.9 19578.2 406096 60342.8 
1431 1 27.0011 36.0581 9.30224 0.173906 -81188.2 -264024 23313.3 135751 -131197 95677.4 
186 1 30.466 34.2329 7.64418 1.21432 -132354 -163627 113942 314592 -295469 123907 
1435 1 30.6551 35.9771 9.43975 0.747928 -277583 -136992 -519308 -114655 -104558 -130186 
192 1 32.5632 34.1759 9.32344 0.401191 188044 635820 -54618.4 95717.9 295464 -115811 
1509 1 32.5528 36.1357 10.9364 0.474058 -305211 -374935 -344300 79578.3 -355495 80442.3 
4404 1 36.1201 36.0992 11.0434 0.17002 -299998 308950 -607561 12984.5 159360 -269881 
190 1 34.3087 34.2371 7.64457 0.628039 -184720 -48581.8 -111028 -232594 111947 139467 
2922 1 36.1292 34.2815 9.32032 0.292991 -581609 -387179 -584897 171627 -94531.7 53774.3 
254 1 34.3343 34.2338 11.0229 0.202139 -513472 250525 -169850 109370 213744 156497 
193 1 21.8154 21.5819 11.2472 33.6375 449128 638406 1.35989e+06 -99031.9 -309562 87742.5 
197 1 25.2988 21.5038 11.0857 16.7963 1.45643e+06 901316 903780 102280 56890.2 93959.9 
195 1 23.5831 21.637 12.9162 15.9441 131612 -220750 -228527 -197995 246830 34531.6 
201 1 28.684 21.5094 11.159 15.0739 1.06783e+06 821981 1.09731e+06 239065 -32049.2 -134646 
199 1 27.0803 21.6252 12.9807 16.9044 742486 101267 1.09843e+06 240988 228046 -69591.5 
203 1 30.5781 21.539 12.8765 16.6262 1.70646e+06 457139 1.08021e+06 -34670 68172.9 39763.6 
207 1 34.3892 21.5815 12.862 17.2765 1.37721e+06 537770 1.3167e+06 196949 -267985 -56032.3 
209 1 21.6719 25.2246 11.097 15.8744 267762 398570 255076 -58897.2 230944 -31673 
196 1 21.7357 23.5172 12.9713 16.0341 20226 792934 682859 -189688 154221 341909 
213 1 25.2181 25.197 11.1446 0.298122 -995161 -259673 -518944 214821 398269 -59918 
194 1 23.4594 23.3713 11.2365 0.513557 -574714 -580965 -513560 -404474 -214034 134028 
211 1 23.5729 25.2168 12.8817 0.401511 -709383 -461235 -333622 -187155 186872 199718 
200 1 25.4175 23.3883 12.9915 0.522121 -116378 -103451 376635 232437 437656 -54588.7 
198 1 27.1226 23.5027 11.1269 0.476722 -370614 -121355 -471107 5286.92 -348549 199554 
217 1 28.9465 25.1982 11.1011 0.20437 -537349 -772796 -507946 -801834 -766.971 243852 
215 1 27.1812 25.2525 12.9188 0.433581 -485896 -784427 -544128 478375 -146432 -495708 
204 1 28.758 23.4802 12.8914 0.850172 33898.6 -566021 7640.6 358538 -577457 -48713.7 
202 1 30.7077 23.2701 11.1013 0.448739 733899 197095 296673 103405 -286271 50355.5 
219 1 30.8002 25.1822 12.867 0.325811 340411 149352 -119885 -7689.7 -269007 278010 
208 1 32.5833 23.3298 12.7633 0.441916 266943 24881.2 269199 238101 -392829 -297020 
266 1 30.7134 23.3075 14.6352 0.39396 -24123.3 -448873 492099 41543 -231902 46090.1 
223 1 34.2943 25.2364 12.7906 0.175605 464350 -49502.7 522951 16198.8 3298.97 362749 
225 1 21.5532 28.7264 11.2756 16.1594 710307 1.34756e+06 1.13419e+06 -96018.5 44505.6 -103978 
212 1 21.7011 26.8591 12.9376 14.9622 420364 807378 678386 217995 8327.99 360471 
210 1 23.5412 26.9719 11.1655 0.393128 -730206 -909697 -529577 -164064 -189513 -52243.1 
229 1 25.1249 28.8088 11.1616 0.429339 45742.4 -242841 -197961 -294767 185645 325741 
216 1 25.2425 27.0609 13.0116 0.315716 -588461 -451704 -529505 -113180 10328.7 281566 
227 1 23.4756 28.8256 12.9861 0.291687 29288.5 152549 -123981 -66986.6 -52302.7 73288.6 
214 1 26.9855 26.9889 11.1764 0.379573 536379 -543824 -800258 -88557.5 -23825.1 127023 
233 1 28.9116 28.8773 11.0734 0.363022 -321154 -348890 -702421 -5748.18 -135454 70683.9 
231 1 27.0715 28.817 12.8766 0.191277 595491 117585 237461 -138559 -14009.6 -18200.6 
220 1 28.9684 27.0821 12.8941 0.242734 -308033 84303.3 -149909 -220166 501123 -7169.78 
218 1 30.6165 26.928 11.1497 0.72261 -866912 -350883 -916325 -195278 -82355.5 146913 
237 1 32.5263 28.8851 11.076 0.115699 91531.9 -11748.5 -217806 259944 58943.6 -86092.5 
235 1 30.7491 28.8342 12.8417 0.122108 -150646 -490762 -234149 -27378.1 27713.4 240866 
224 1 32.5332 27.0318 12.8069 0.167639 -496832 321012 42610 182964 125417 178185 
222 1 34.3222 27.0121 11.1149 0.160166 -176504 209429 -197662 -66424.3 -166153 488839 
2958 1 36.1281 26.988 12.8035 0.207969 -199299 3099.36 209861 -195140 -394710 74735.6 
3045 1 36.0579 28.8588 14.6095 0.379182 -463062 -950987 -756176 217744 -190931 -250647 
239 1 34.3472 28.9434 12.8827 0.244056 -145897 -2450 -421845 -27681.1 -289057 3131.21 
2973 1 36.1475 28.8153 11.0697 0.134309 148168 -21383.5 -373217 24576.9 -490036 125051 
286 1 34.2184 27.1303 14.63 0.409442 215866 363347 307639 -5073.99 -14119.4 187142 
241 1 21.496 32.4512 11.1771 17.3407 125406 861548 703530 121583 -222628 -75326.9 
228 1 21.4443 30.7252 12.959 18.3492 618486 1.15554e+06 1.06091e+06 -296482 -32475.6 4370.81 
226 1 23.278 30.6667 11.1824 0.144265 -8671.37 220118 51081.3 186183 -83319.6 -355126 
245 1 25.139 32.5431 11.0951 0.180656 846429 164106 117897 -105081 -108376 -106977 
232 1 25.1414 30.7076 12.9173 0.143645 -308729 -42391.2 -252050 -366596 -135463 -65947.3 
243 1 23.2788 32.4991 12.8642 0.247992 -347741 -62231.7 273650 502000 -123845 -154091 
230 1 27.0589 30.6535 11.2156 0.414531 18338.7 220211 -201801 -71495.5 -141574 126963 
313 1 28.8455 32.5342 14.5374 0.120523 47303.5 -349985 -896445 135876 14660.8 43805.5 
236 1 28.9485 30.6777 12.891 0.226935 -499918 -195007 -879492 -85814.7 -274536 42777.7 
247 1 26.99 32.4488 12.9218 0.239404 276271 -185351 -296636 -294761 -254364 1331.06 
294 1 26.9394 30.691 14.6099 0.41853 -125348 -359951 34528 -153075 -92259.8 115769 
253 1 32.528 32.3689 11.054 0.237804 -255865 -599844 -343064 134903 -80888.6 418874 
317 1 32.5078 32.5795 14.5632 0.140433 112535 -232686 91054.8 -272726 -177630 -146806 
234 1 30.6877 30.6139 11.1664 0.293255 -641805 -783010 -142368 102350 260648 188555 
240 1 32.5621 30.7315 12.8443 0.180334 -572937 -512488 -778824 17383.9 362317 262517 
251 1 30.6842 32.5333 12.809 0.128274 -373372 -1.08575e+06 -1.19004e+06 62158.5 -123602 616530 
298 1 30.7704 30.7999 14.4686 0.738381 -624568 -89275.1 -177058 -18452.3 -98853.3 264805 
2976 1 36.1488 30.7086 12.721 0.375199 -455506 -447738 -154541 177660 -171232 -25062.8 
255 1 34.4044 32.4162 12.7593 0.373425 -439859 -351153 -341869 8628.67 -4867.34 -52351.3 
244 1 21.7022 34.3186 12.8877 14.5912 -376900 264589 131415 231084 17663.5 -18321.9 
1497 1 21.5309 36.0522 11.0508 17.099 -193522 647461 647184 568023 381909 175003 
1501 1 25.1008 36.1305 11.068 0.240979 241563 -264158 -86205 226037 -141479 32384.5 
248 1 25.1019 34.4383 12.8369 0.433579 547990 347028 -42887.3 -59656 62524.4 -127935 
246 1 26.9959 34.3597 11.2134 0.52216 -138950 526884 -306442 -154042 251095 24285.7 
252 1 28.8629 34.2765 12.8506 0.116161 -116381 -371678 -449414 267370 -209377 414063 
310 1 26.9416 34.3396 14.5682 0.365276 -198033 -372882 -390267 85584.5 8526.78 304540 
1577 1 28.8902 36.0555 14.5563 0.312022 200936 -888291 -800588 160309 -105601 620713 
1503 1 27.0273 36.1404 12.8879 0.134072 -518827 -650959 -447838 129703 211569 -17593.5 
1505 1 28.9187 36.1182 11.1931 0.310259 -342713 -480039 -739915 -144729 209397 -185535 
314 1 30.7552 34.3694 14.5323 0.175959 -449324 -308444 -395888 333768 -68873.7 -118468 
250 1 30.737 34.2445 11.1188 0.201921 -54936.1 -363998 -610622 59647.5 -188648 866706 
256 1 32.5725 34.3642 12.7429 0.26889 -158604 358346 -246676 -153313 58628.5 78811.1 
1581 1 32.6482 36.1078 14.6078 0.307848 -148941 -376832 -245631 -7326.88 -151848 503899 
257 1 21.9676 21.7539 14.6946 24.0453 -142681 -286370 660105 -590027 422444 -12048.6 
261 1 25.2409 21.5521 14.9248 13.9639 989024 206547 972546 229648 167646 -207900 
259 1 23.5671 21.595 16.6941 17.8362 351759 418951 945960 -111519 216902 -165991 
265 1 28.9312 21.5963 14.7594 16.6759 437299 472328 797124 -176018 -159503 -20348.3 
263 1 27.1756 21.4084 16.5901 11.8305 1.4905e+06 1.01055e+06 1.052e+06 -18513.4 -146508 80416.1 
269 1 32.4577 21.6456 14.7999 15.2814 612881 -425158 845147 240392 -115104 -444914 
267 1 30.6187 21.5483 16.499 16.8235 781194 545322 602555 88270.7 -403228 160067 
3009 1 36.0015 21.6936 14.852 14.5935 1.11125e+06 94624.9 1.05178e+06 286461 103909 -507167 
271 1 34.1732 21.5955 16.5979 16.2504 -55734.3 358383 69158.9 275705 -56131.7 -249721 
3081 1 35.9967 21.5861 18.2114 15.8059 419076 518766 736984 159284 -272038 299205 
273 1 21.6849 25.3058 14.8141 16.3481 666906 766393 641695 -246425 -276585 295270 
260 1 21.8447 23.4462 16.484 14.4485 317307 129160 793954 -217975 107300 -221046 
277 1 25.3181 25.2541 14.6936 0.319686 -196927 -245159 -235646 -315901 81248.8 179473 
258 1 23.6103 23.3753 14.6506 0.660025 -1.15454e+06 -1.04809e+06 -179596 -823142 152649 -339973 
275 1 23.5896 25.1797 16.4597 0.640363 -170694 -242771 -27779.4 123256 -12077.8 -207720 
264 1 25.2582 23.43 16.5846 0.395714 -461567 -296408 -213946 -36117.4 340108 -319520 
281 1 28.9021 25.2086 14.646 0.301313 133042 -56847.7 -340252 264175 -519583 -384451 
262 1 27.0817 23.3719 14.9489 1.04212 227565 419142 442487 47467.5 -11560.1 -329758 
268 1 28.9783 23.4953 16.5623 0.547523 -195070 385043 202534 -100189 -518984 -147568 
279 1 27.0622 25.2303 16.6164 0.504173 44348.1 -373571 110155 -253791 245340 149710 
285 1 32.4962 25.1386 14.6851 0.222502 -322272 33483.7 -74493.5 409750 -365010 215658 
283 1 30.6948 25.2324 16.4699 0.149065 -324029 -261922 -11852.8 -101258 186526 349857 
272 1 32.4527 23.3895 16.4397 0.158974 55086.5 -837399 -624475 224184 121136 -98018.8 
3012 1 36.0955 23.4287 16.5045 0.170988 630184 -336111 -9075.13 93221.9 310174 -137206 
3027 1 36.0747 25.2374 14.741 0.367842 744552 592942 509682 -91185.2 122779 -17580.2 
270 1 34.2252 23.392 14.6438 0.304709 -146290 -410940 519249 330662 -114907 -172126 
287 1 34.2468 25.226 16.4469 0.216026 -37332.8 414370 -54575.2 383854 195012 39592.3 
289 1 21.5692 28.8847 14.8741 11.1416 528502 1.02143e+06 1.17793e+06 -176984 -251140 88232.8 
276 1 21.5842 27.0881 16.5526 11.5959 238902 1.02387e+06 558186 -158873 -443903 61398.9 
274 1 23.4963 27.0989 14.7811 0.21182 -61595.1 121841 126090 -270611 121868 221595 
293 1 25.2396 28.9259 14.7316 0.171814 -151406 -607523 -440683 -493154 -139861 82459.5 
280 1 25.4207 27.1789 16.4481 0.908697 -485809 -357057 95979.7 -167857 208469 58452.9 
291 1 23.4474 28.9067 16.5202 0.203133 -545137 -159933 -395479 -86161.9 58582 55664.7 
338 1 23.4439 27.0125 18.0838 1.4998 45821.5 640435 229122 90882.8 -132613 180747 
278 1 27.1249 26.9459 14.6812 0.445003 -485603 52987.3 -652514 -31731.3 -78996.9 -347769 
297 1 28.9285 28.9087 14.6712 0.215036 558971 712325 -2737.95 -20530 -348627 -83205.3 
284 1 28.8484 26.9325 16.4484 0.749635 -61971.9 143735 292616 90051.6 -205636 85078.8 
295 1 27.1204 28.8315 16.5161 0.484279 -86241.9 -56899.1 164724 -556912 29495.3 -48320.4 
301 1 32.5252 28.9567 14.6761 0.273462 -76743.4 4127.34 209711 189196 73543.1 -5443.66 
282 1 30.8149 27.016 14.6428 0.271456 408799 20645.1 -99174.7 110297 -133594 -118382 
288 1 32.546 27.0507 16.4722 0.174604 -151991 153315 -131631 259191 346081 -25071.1 
299 1 30.6666 28.8165 16.3635 0.57388 453575 870403 273781 198974 -292633 -222527 
365 1 32.5867 28.9936 18.1079 0.559994 -328470 -24006.8 -120540 -357079 658560 5090.97 
303 1 34.3286 28.9713 16.5011 0.510192 -953823 -484008 -922779 15336.1 454235 -222979 
305 1 21.5528 32.5232 14.7486 17.1829 89342.7 1.01679e+06 840224 -72662.9 -238818 10111.4 
292 1 21.575 30.684 16.5318 17.7501 345065 -61917 -80650.5 -12287.5 -106966 176439 
309 1 25.187 32.4683 14.6784 0.246236 33603.7 -23299.9 83453.9 -47037.4 -53435.1 -26531.6 
290 1 23.3438 30.6924 14.6535 0.186671 -169236 214556 181453 -66497.3 121692 9594.02 
296 1 25.1838 30.7394 16.4356 0.0949291 354135 -85488.1 -480752 -319859 -1487.06 233533 