ITEM: TIMESTEP
9200000
ITEM: NUMBER OF ATOMS
5780
ITEM: BOX BOUNDS pp pp pp
2.2430518916386903e+00 7.0056948108376858e+01
2.2430518916386903e+00 7.0056948108376858e+01
-2.7689833738606553e+00 7.5068983373876208e+01
ITEM: ATOMS id type x y z c_csym c_2[1] c_2[2] c_2[3] c_2[4] c_2[5] c_2[6] 
3 1 23.766 22.3644 -0.86928 15.3619 4630.93 156542 1.18125e+06 -370780 548666 -48672.8 
4 1 22.0556 24.1051 -0.685935 16.3108 298120 279268 947778 -141817 49787 -425771 
1 1 21.9206 22.5571 -2.66131 31.3032 1.10846e+06 1.13781e+06 1.69683e+06 2255.63 -74826.3 -145399 
7 1 27.2027 22.0937 -1.09908 15.2394 1.25777e+06 716231 1.52454e+06 35615.7 224619 191082 
8 1 25.5086 23.9545 -0.880056 0.282024 -582471 -1.08419e+06 758633 -494880 61051.6 -13374.9 
5 1 25.334 22.1829 -2.76888 17.2696 470653 602462 369214 160279 234334 -169137 
69 1 25.6656 22.2265 0.981392 14.912 651084 -139552 802982 -114663 204853 78726.2 
70 1 27.385 23.9092 0.990089 0.307357 -205398 -561520 395986 -137658 256487 300752 
11 1 30.8109 22.0569 -0.952083 17.9524 1.33416e+06 612711 1.7241e+06 7349.65 -46813.8 129567 
12 1 29.068 23.8428 -0.844259 0.55002 597241 120378 346201 110525 145061 -311184 
73 1 29.0862 21.9856 0.987942 19.7569 1.91001e+06 750320 2.09325e+06 -101750 168715 104981 
74 1 30.7195 23.9 1.09628 0.644739 -200417 -145102 759292 -500727 -216615 54816.6 
16 1 32.5968 23.8155 -0.829457 0.360059 731358 158778 884073 244261 -205923 377974 
15 1 34.4882 22.1518 -0.742267 15.957 911920 32680.2 1.32654e+06 -301033 241765 -43290.5 
77 1 32.6957 22.1656 0.959453 15.1088 1.14126e+06 33127.3 1.08802e+06 -533205 302689 348926 
2724 1 36.0695 23.942 -0.65775 0.479813 -359023 -842937 763990 -396798 -54780.4 -148834 
13 1 32.7519 22.0409 -2.755 16.1758 1.70981e+06 788093 1.92335e+06 -124238 121074 -141231 
14 1 34.4034 23.9126 -2.71772 0.403714 9425.27 -555039 1.18494e+06 -379.67 77184.2 317560 
19 1 23.8781 25.7069 -0.722778 0.40666 -150109 -128241 1.12148e+06 -93036.7 -9996.82 -202222 
20 1 21.9966 27.4048 -0.782318 17.7239 525364 1.7184e+06 1.76214e+06 -139458 -14440.7 -15264.9 
18 1 23.7739 27.386 -2.75406 0.251699 223650 363298 1.05302e+06 33077.9 183820 -214499 
17 1 21.9611 25.6787 -2.67256 16.2294 40518.7 1.3549e+06 1.51783e+06 273155 256754 -66898.7 
23 1 27.2308 25.6338 -0.819803 0.672332 -405005 -56985 -205085 -338299 342750 134829 
24 1 25.5461 27.5036 -0.760916 0.463864 107883 -76717.8 924460 390478 -71394.7 181304 
85 1 25.8022 25.7275 1.08961 0.728107 -432263 -96377.7 -143972 -181928 360182 89813.4 
86 1 27.4393 27.5146 1.05062 0.26842 -651053 -427390 751880 -424447 264723 -28007.7 
27 1 30.8862 25.6264 -1.01915 0.968749 334840 498514 589061 331625 42934.7 -159203 
28 1 29.0814 27.366 -0.871763 0.216142 122719 167873 -95761.9 83317.4 -80431.1 440188 
90 1 30.7804 27.4183 1.08296 0.279614 -269125 -411011 1.03116e+06 101367 -131627 35048.4 
89 1 29.1027 25.7319 0.919627 0.824473 -184654 -881872 652268 -62807.7 -158276 260490 
32 1 32.6895 27.4792 -0.804066 0.906575 -341516 -446269 1.34463e+06 400762 56053 148671 
31 1 34.3454 25.744 -0.856802 0.610507 396574 262298 1.002e+06 551686 -802.623 126502 
30 1 34.5215 27.3631 -2.75517 0.559746 -39215.5 -701713 -408174 -39739.8 115660 229552 
35 1 23.7959 29.1199 -0.811912 0.176496 -329567 60068.2 1.0074e+06 435165 -295512 168106 
36 1 22.0561 30.9063 -0.819875 16.155 269760 831933 1.06733e+06 -134541 21252 -387582 
98 1 23.8347 31.0134 1.07443 0.531136 -424685 102226 728237 -132363 -112253 180101 
33 1 21.9806 29.1475 -2.69873 16.3933 69188.9 1.01225e+06 1.32489e+06 -330299 200911 70986.4 
39 1 27.4095 29.3133 -0.799186 0.538803 -21614.1 154250 688610 -106450 28058.8 75286.7 
40 1 25.5602 30.941 -0.779761 0.226561 -30569.9 306679 1.07e+06 -116274 252725 371708 
43 1 30.9468 29.1035 -0.963579 0.677047 -120212 165012 771744 168294 -28088.7 86202 
44 1 29.1634 30.9501 -0.954667 0.498342 -426121 -502817 661505 -644897 -319929 59984.6 
106 1 30.7264 31.0014 1.01462 0.735274 21692.5 -337733 242313 -552238 -59680.7 164434 
105 1 29.1222 29.2133 1.09022 0.104768 -619237 -558565 814007 -349906 -65402.1 81674.6 
47 1 34.3418 29.1545 -0.918519 0.626338 -292925 -329959 1.13998e+06 -515748 8654.78 -37432.9 
48 1 32.5813 30.9356 -0.950822 0.250858 -429921 -143200 521437 -52376.4 429958 -98892 
2760 1 36.0795 30.871 -0.68414 0.412969 76875.5 -427181 207438 -243257 228806 -321380 
46 1 34.235 30.9487 -2.72183 0.689278 31521.5 315228 377491 -148313 317255 -17741.3 
51 1 23.7388 32.6981 -0.773073 0.259208 -336506 -238066 548260 -16224.1 101822 438145 
52 1 22.0251 34.4189 -0.762357 16.2902 -118247 563114 831097 103350 -9958.3 -9845.21 
50 1 23.7492 34.3264 -2.68555 0.549707 -398434 -59963.5 647011 423284 302380 -77011.7 
113 1 21.9105 32.5825 1.01015 15.5911 299247 1.11631e+06 1.30246e+06 -36033.6 204369 -129001 
49 1 21.8817 32.6693 -2.76138 18.6066 739517 1.64785e+06 1.81816e+06 -158863 166547 -9595.68 
1285 1 25.5499 36.1391 -2.73078 0.232505 562417 273886 769906 469986 266200 -207138 
55 1 27.3215 32.5801 -0.97898 0.851122 -625969 -337719 714074 -332006 108195 80820.4 
56 1 25.6019 34.3646 -0.791475 0.471478 423225 157192 336184 -86148.4 -290496 129229 
1357 1 25.4436 36.1276 1.10954 0.234838 -142383 -466829 1.04137e+06 881029 -104558 -162551 
54 1 27.3039 34.4231 -2.76439 0.14904 -373826 -291482 418359 78644.2 -250459 194872 
1361 1 29.0617 36.0898 1.03454 0.322787 -207947 260894 635213 189510 -162907 147264 
59 1 30.8376 32.6392 -0.822578 0.567713 -507226 -673499 510585 -446767 -64041.6 95926.4 
60 1 28.9762 34.3532 -0.901854 0.403152 86477.8 -11091.9 445172 -54276.3 -272157 -13878.9 
122 1 30.8235 34.374 0.995183 0.225968 -125023 -388068 638493 116354 83610.8 -190757 
2778 1 36.0345 34.2963 -0.858498 0.30106 -629615 -572231 496586 -118149 402094 65384 
2775 1 36.0994 32.5358 -2.72429 0.284691 -345913 -102641 813855 211768 -38784.2 -183446 
2847 1 36.0815 32.5432 1.07481 0.443098 -447652 -588861 215469 -72974.2 279619 -276746 
63 1 34.2913 32.7073 -0.895001 0.265898 -791757 -843596 120053 -381501 268953 -104323 
64 1 32.5633 34.3735 -0.940908 0.281817 2164.4 -237879 569005 183588 311486 371658 
125 1 32.5904 32.6426 0.982468 0.222722 -530345 -269628 252352 228577 119304 21521.4 
126 1 34.371 34.3862 1.06587 0.180811 -6499.99 46643 566890 -429410 178329 -20947.2 
4161 1 36.0864 36.0197 -2.75249 0.385185 192005 348673 652141 296632 -143381 123980 
1293 1 32.5644 36.1323 -2.71804 0.217766 393727 55217.4 942568 114480 99141.3 707441 
66 1 24.0179 23.9985 1.25881 0.742351 -1.00527e+06 -1.01897e+06 477639 -233960 149208 87515.5 
65 1 22.3881 22.3329 1.19861 26.0962 -60568.8 504229 932466 -509558 -173470 -115672 
67 1 24.0829 22.0946 2.89296 20.4389 -520165 254841 -1.12446e+06 -56059.3 185189 413784 
68 1 22.3497 23.9157 3.19661 15.2918 471848 571843 859467 -83281 89447 263581 
129 1 22.8182 22.1157 4.82532 24.2823 337952 214930 571797 -232653 684292 275506 
71 1 27.2647 22.1039 2.94895 15.5397 891380 -420062 1.27504e+06 584804 -132223 -190730 
72 1 25.7965 23.894 3.02595 0.403378 -1.12031e+06 -1.27873e+06 59894.2 162629 -495062 -11286.2 
134 1 27.3518 23.7632 4.88668 0.480079 110192 100858 -858529 205705 -191835 227551 
133 1 25.4801 22.0007 4.84786 13.3971 844596 172502 564143 212791 -308589 64171.4 
75 1 30.9225 22.0591 2.9456 15.7382 1.41956e+06 262980 1.59969e+06 -319446 106587 -20780.4 
76 1 29.0847 23.8396 2.98414 0.162239 95038.2 271844 1.03979e+06 133819 173774 37946.9 
137 1 29.1155 21.8815 4.80467 17.4725 1.31231e+06 372697 1.80837e+06 -455336 219916 30992 
138 1 30.6556 23.6911 4.97909 1.26354 397588 187993 1.03554e+06 -500080 176129 -127621 
78 1 34.3173 23.8895 1.22067 0.263979 -159779 -245361 864231 -905640 248640 -283279 
80 1 32.4736 23.8923 2.96947 0.639719 -347360 -973035 607187 -87457.2 -6786.68 -8927.55 
79 1 34.2327 22.1931 3.20153 13.8902 1.34345e+06 334277 971594 297708 -54429.4 -267508 
2865 1 36.1113 21.9828 4.87315 17.3767 1.142e+06 788082 1.47498e+06 14263.5 250275 91600.9 
2793 1 36.104 22.0742 1.29804 15.6526 973076 318046 1.35966e+06 -358853 -367611 -108107 
81 1 22.081 25.5143 1.26962 16.0813 445719 802668 631807 182154 -52968.8 -565501 
82 1 23.7563 27.4382 1.12532 0.585764 265112 780109 460944 -149212 408415 -19381.6 
83 1 24.0665 25.7508 3.12556 0.326987 -494908 -158329 644241 180666 86864.6 102065 
84 1 22.2111 27.2225 3.05043 14.4893 -66268 703556 858778 388082 351613 -24634.4 
87 1 27.417 25.6153 3.00897 0.418145 -452716 -152740 404378 -194578 41066.3 -48083.5 
88 1 25.7293 27.5428 3.03719 0.265577 65683.2 -130852 619465 -346152 -86422.9 310662 
150 1 27.4081 27.6046 4.91008 0.635885 -1.13987e+06 -838899 346133 -715467 -212954 171961 
149 1 25.9075 25.8163 4.93691 0.994986 -634179 -840684 121782 -592916 23073.4 117609 
91 1 30.7852 25.6526 3.07557 0.242722 -508202 -303282 548364 -35830.9 434439 -216109 
92 1 29.1349 27.486 3.09222 0.182981 224679 113885 884755 160885 454864 229535 
93 1 32.3511 25.593 1.19121 1.16912 1427.21 -352376 646394 -257787 189301 246920 
2814 1 36.055 27.3644 3.13056 0.126066 -138491 83431.3 850265 446041 -165201 -14268.8 
94 1 34.2362 27.3463 1.30644 0.884837 293023 219854 912391 315939 -168536 -189667 
2811 1 36.0013 25.638 1.18322 0.438679 266761 160053 629277 -70490.3 -60814.7 -317997 
96 1 32.4659 27.3743 3.14295 0.31524 -321538 -187492 462041 17257.8 325709 -22464.2 
95 1 34.2398 25.5813 3.15578 0.191045 160810 139676 486113 -155168 183981 -94590.2 
157 1 32.4959 25.4034 5.00413 0.788009 -219784 178492 444486 574789 333612 -1017.92 
97 1 22.0974 29.3336 1.28147 12.9868 426278 1.54913e+06 1.80444e+06 -255674 -104276 40787.2 
99 1 23.8443 29.1605 3.13677 0.377746 -315969 462951 739360 -345989 -39128.6 -99212.7 
100 1 22.0162 30.9971 3.26304 14.477 465033 970972 1.29064e+06 -400157 -220312 -691935 
101 1 25.5806 29.2493 1.12425 0.112057 272480 -303238 345728 -103141 -60418.6 -52645.6 
102 1 27.3554 30.9357 1.1524 0.227523 157350 -460042 545141 -477638 -119402 56498.4 
103 1 27.4298 29.3029 3.02631 0.263571 -93317.5 -740100 153117 -228865 100803 190638 
104 1 25.5129 30.9025 3.02859 0.393734 -285415 -328320 428658 -330211 -47507.5 -9512.15 
166 1 27.3774 30.8924 4.93576 0.739662 -2291.24 -323627 561031 -372934 -45805.6 141931 
107 1 30.9028 29.2127 3.04993 0.193835 -310002 -153496 818093 -61690.5 80763.9 -192626 
108 1 29.1628 31.0266 3.06023 0.371986 -677369 22505.5 713861 -630037 55929.1 92217.4 
170 1 30.8512 30.9888 4.97684 0.248429 -54581.2 61356.8 789825 -373056 -80393.2 62876.6 
2829 1 36.018 29.1062 1.13926 0.391024 452999 122259 753268 201378 222135 -23122.4 
109 1 32.5807 29.2049 1.19988 0.398825 281112 239773 840994 -284664 56903.9 -271219 
110 1 34.3049 30.9434 1.13266 0.179185 -768134 -325151 835327 -304215 315440 -8959.02 
111 1 34.3063 29.1314 3.08997 0.115283 177438 195616 771403 -31545.6 -53143 -212936 
112 1 32.5729 30.9919 3.02328 0.237196 -248057 -412039 704097 256683 369723 -245173 
2832 1 36.0996 30.8162 3.06825 0.308935 -79338.2 262463 629724 137080 108926 25877.8 
114 1 23.632 34.3505 1.18922 0.571629 -69018.4 421717 806695 25239.3 -278579 -103735 
115 1 23.7492 32.6789 3.07918 0.166845 -246620 -366234 703385 -335868 258684 26307.7 
116 1 21.8904 34.3234 3.09902 17.8581 221921 1.57046e+06 1.87661e+06 -132837 120809 164232 
178 1 23.7205 34.3322 4.99903 0.417391 -116908 363475 373504 -170431 280730 -137703 
177 1 21.9644 32.6362 4.99754 19.2092 466153 714990 1.05737e+06 -201829 168810 -372444 
1355 1 23.5448 36.122 3.11099 0.804751 -189351 463786 1.38009e+06 152609 136826 -75536 
1359 1 27.2996 36.0969 3.11504 0.225935 343490 66399.7 990865 164042 39424.2 39015.7 
118 1 27.1734 34.4632 1.15646 0.480209 -1.06328e+06 -647854 772014 -287565 -368138 30862 
117 1 25.5425 32.8185 1.16992 0.704174 -371254 -428724 701933 -711654 -153883 237308 
119 1 27.2363 32.6383 3.14709 0.429767 -259199 150696 223163 -355842 89608.8 193347 
120 1 25.4195 34.4469 3.16693 0.314708 97519.7 194308 647712 -334956 265442 -103301 
1363 1 30.7941 36.0886 2.99208 0.275267 235809 168865 919463 -78878.4 245767 322700 
121 1 28.9526 32.7563 1.13019 0.763968 -9761.26 -358816 575028 -177147 -2147.89 -86250.9 
123 1 30.89 32.6312 2.93593 0.415852 -966970 -1.03427e+06 710813 -281969 -36888.4 -98246.1 
124 1 29.031 34.3287 3.01576 0.334053 128143 -62324.7 481204 -149353 -109517 32983.7 
186 1 30.9122 34.3883 4.85781 0.820367 240658 272271 759176 87460.4 6229.12 46449.4 
2850 1 36.1087 34.3695 3.029 0.278553 -547207 -686053 399470 -108205 85953.9 227979 
4242 1 36.0857 36.0814 1.2252 0.206369 -407582 -808528 486932 -110620 -16090.9 202668 
4323 1 36.0748 36.0367 4.9845 0.383779 -529277 -511705 455991 -193557 -19702 166031 
128 1 32.6303 34.3049 2.99528 0.271857 -37619.5 303542 770511 -225361 199381 184176 
127 1 34.4757 32.6404 3.10997 0.560848 -246488 -339053 800666 -123152 105141 -235335 
189 1 32.6448 32.6344 4.99934 0.147071 -508859 -803125 506891 -355999 -176465 -85232 
130 1 24.1983 24.0672 5.02692 1.42748 -843595 -758975 189709 -175234 -278366 -124964 
131 1 24.215 22.0138 7.09067 16.8912 927410 835153 1.59721e+06 -246268 13438.7 -145450 
132 1 22.4478 23.9011 6.87495 20.0354 592283 890443 1.51077e+06 -529969 142824 96589.8 
193 1 22.4187 22.3275 8.86422 29.6712 388707 883424 958188 -81207.9 -216629 39630.7 
194 1 24.265 23.9015 8.90415 0.931746 -537950 -1.19986e+06 651511 -48039.8 -339749 224450 
135 1 27.352 21.9887 6.64316 13.9127 1.04642e+06 -225130 1.1353e+06 120149 181896 396458 
136 1 25.8403 23.8682 6.78016 0.94734 -580321 -234752 -74542 156252 -230650 85170.4 
198 1 27.2707 24.0273 8.81094 1.55652 -1.10789e+06 -1.86246e+06 307197 78365.3 193597 39358.9 
197 1 26.0344 22.0707 8.81415 13.4975 585275 -438509 796428 -624351 -226436 -8391.37 
139 1 30.7712 22.14 7.13097 12.9741 1.14381e+06 12769.6 1.19885e+06 -160980 59348.8 -436298 
140 1 28.9591 23.8481 6.77055 0.954859 -68034.2 -344640 772735 308037 84725.5 131906 
201 1 28.8387 22.201 8.84394 11.6537 389504 -217175 698993 77573.1 567473 -183502 
141 1 32.4982 21.974 5.02892 16.4902 1.58064e+06 931494 1.81879e+06 90319.4 181857 -126510 
142 1 34.3254 23.7721 5.06117 0.333015 497398 -41920.8 547334 288187 55779.5 -345105 
144 1 32.6104 23.7389 6.95765 0.323555 -24056.5 -733384 715254 -159683 188038 649117 
143 1 34.3515 22.0644 7.02055 18.6274 949380 224713 1.68091e+06 182548 273773 99664.9 
205 1 32.6535 22.1736 8.84975 14.6879 301387 -54971.1 602094 -60862.6 141363 446015 
2868 1 36.1248 23.7764 6.87599 0.302154 432227 585798 1.27803e+06 -285987 -96203 125033 
145 1 22.3801 25.7512 5.05273 14.3638 -107362 554713 488874 -140204 35896.1 -32815.7 
146 1 24.0681 27.4891 5.12073 0.665258 -976937 -859509 445126 -152874 -261888 -116028 
147 1 24.1033 25.6638 6.95955 0.310109 -387123 -206498 222432 -548709 -201993 -260015 
148 1 22.1026 27.2639 6.97509 18.2542 729878 1.1288e+06 1.10591e+06 -132139 21416.5 -281181 
151 1 27.4667 25.71 6.88533 0.339047 -843984 -830452 52534.6 -253915 -93613.9 181305 
152 1 25.7001 27.5208 6.97983 0.159823 -556980 -378010 586800 -637990 -397750 43372.8 
214 1 27.4623 27.5073 8.86538 0.302869 -151076 -208599 844603 -631083 9694.07 68655.7 
154 1 30.9893 27.3101 5.15296 1.34872 -269155 -571751 28227 -309451 228067 87969.7 
153 1 29.0574 25.7847 5.01971 0.815698 86770 301838 42346.5 15564.4 238601 92677.6 
155 1 30.8233 25.5806 6.91384 0.277825 -43272.3 169955 446970 -515553 190795 227903 
156 1 29.0527 27.4774 6.88098 0.522206 28404.1 -394917 -8999.6 -509663 134356 218246 
217 1 29.1083 25.6347 8.79246 0.229654 -184271 82901.9 876316 -311339 -75413.4 147699 
218 1 30.7667 27.4088 8.86527 0.450256 -264248 -400715 382587 87480 463250 -332007 
2886 1 36.0221 27.279 6.91856 0.281795 -71484.8 -321140 363261 -108660 83330.6 171294 
158 1 34.2776 27.3107 5.05349 0.0963356 835312 510887 555710 -14845.2 -194479 -470885 
160 1 32.5045 27.2501 7.10868 0.716854 -1.1361e+06 -678064 318029 -226791 -188978 226901 
159 1 34.2407 25.5445 7.01917 0.263391 202820 -64630.9 831811 -218334 -78633.4 -92051.5 
2955 1 36.1382 25.6096 8.84045 0.436951 -84549.8 244537 853824 116531 -39259.2 161229 
162 1 23.8314 30.9409 5.04252 0.239378 -653487 120292 574333 224290 -262519 -95659 
161 1 22.2027 28.9807 5.05851 14.7568 -141767 1.3604e+06 1.25433e+06 297736 -92372.5 66270.6 
163 1 23.7971 29.123 6.98926 0.306914 -172121 56517.4 616240 167261 -98894.2 -194954 
164 1 22.0312 30.8394 6.94306 17.8873 765594 1.52509e+06 1.8784e+06 264505 55212.2 119831 
225 1 21.9313 29.0623 8.78847 18.4148 959835 1.81324e+06 1.80867e+06 24969.7 105406 43978.2 
165 1 25.5891 29.3225 5.02182 0.340559 -918959 -927190 419593 -348941 -165840 94185.3 
167 1 27.2595 29.2769 7.0025 0.487152 -109589 -373088 625040 -350318 71705.5 -9494.09 
168 1 25.4734 30.9761 6.98303 0.412423 -434312 -715868 469471 492154 -86950.2 71160.6 
169 1 29.2026 29.1809 5.11784 0.689703 27182.8 -226028 661967 -667841 -288885 174027 
171 1 30.9726 29.1731 6.94043 0.583475 -133512 -76484.8 59899.4 -412103 -32135 -34139.8 
172 1 29.078 31.0626 6.95478 0.519717 523140 644206 1.27985e+06 -259667 -58805 -112696 
234 1 30.9145 30.9232 8.86948 0.298683 -186672 -53259.1 959911 34732.4 26953.6 5765.93 
2901 1 36.0509 29.1083 5.12397 0.243416 -336544 -375076 746258 137670 42446 114387 
2904 1 36.0424 30.8765 7.05239 0.257029 230597 631635 215957 39068.7 178751 -73743.4 
2973 1 36.0882 28.9616 8.85005 0.413761 446861 550379 692453 -161520 356539 227138 
174 1 34.3886 30.8621 5.11819 0.370696 -187980 -164975 758225 236955 137341 -67779.7 
173 1 32.5097 29.2053 5.04328 0.470923 -384345 -116040 121354 -160904 63716.5 -358301 
175 1 34.2188 28.9646 6.90794 0.846983 120858 -93560.3 493333 187384 88841.9 -206127 
176 1 32.6234 30.8895 6.92229 0.14786 -523838 -541854 185982 -717085 85260 -226854 
238 1 34.3311 30.8436 8.79477 0.487596 -141944 291632 606792 -202352 562920 98523.1 
1427 1 23.8125 36.1461 6.87565 0.679564 -1.28359e+06 -619809 813372 15725.8 240710 -71390.7 
179 1 23.8663 32.6828 7.03017 0.265411 -320330 -383300 1.29314e+06 120745 303036 118401 
180 1 22.0945 34.5258 7.02304 15.6973 301925 1.05116e+06 1.48467e+06 -493234 269792 -30566 
1431 1 27.1969 36.1059 7.00774 0.505485 540429 485288 876700 -123970 168038 -252631 
182 1 27.28 34.4841 5.10987 0.357412 -7414.94 -377056 743922 342285 89284.6 -26807.9 
181 1 25.5802 32.6552 5.05499 0.249215 -120050 -11430.9 279667 -207069 135564 118180 
183 1 27.2261 32.7106 7.00084 0.38712 -32352.8 385783 615177 167413 281751 73831.9 
184 1 25.4362 34.4142 6.98136 0.514477 -629701 -984793 1.15733e+06 -224732 54607.6 -22354.7 
1435 1 30.8827 36.1478 6.84448 0.797289 -561019 -293312 623068 -72760.9 -129787 300810 
185 1 28.963 32.8601 5.0379 1.1881 92405.9 -13404.1 732381 257282 -84158.8 229359 
188 1 29.1353 34.4745 7.05883 0.386689 217359 81588.3 797720 140108 100829 -275980 
187 1 30.8312 32.748 7.02113 0.324102 -350703 -306275 1.26951e+06 -633614 -85827.6 87451.7 
2922 1 36.0457 34.3688 6.99055 0.0982712 -769462 -970060 203300 340136 249211 -338665 
1439 1 34.3301 36.1229 6.97825 0.159006 221755 43868.6 225923 281663 -340567 -82187.5 
4404 1 36.1022 36.1169 8.79949 0.606378 -510021 -138772 647237 -370726 201850 -252737 
2919 1 36.0879 32.6712 5.08463 0.14235 -501117 -231305 466655 -159760 -232474 -80676.3 
190 1 34.2852 34.3571 5.03474 0.20826 -373446 -679427 567489 -341109 -17039.3 10376.5 
191 1 34.2734 32.6691 6.96284 0.251962 -441750 -635512 238745 -163895 157597 125338 
192 1 32.5291 34.364 6.94074 0.360259 -549010 -660514 884321 -69171.1 125338 129045 
253 1 32.6311 32.6648 8.89249 0.0533609 -122207 -303184 434031 -105191 105443 113408 
195 1 24.1476 22.1102 10.5916 16.3615 206594 151951 936923 20894.4 76644.8 366033 
196 1 22.3266 23.6382 11.0258 21.4761 374383 703944 1.74321e+06 302348 -165762 -184595 
258 1 24.197 23.9478 12.7599 1.24287 -553235 -1.48924e+06 540178 -975723 -160341 205917 
199 1 27.4844 21.9297 10.825 16.02 374436 290303 292640 -295058 -109373 -17801.3 
200 1 25.8781 23.8538 10.8552 0.574254 -403239 -202828 101090 -403226 -65619.7 61443.2 
261 1 25.7065 21.9778 12.7037 14.0547 1.49024e+06 415001 1.9511e+06 3694.93 42452.9 108374 
202 1 30.7391 23.7248 8.91475 0.80639 143228 -828827 393589 53289.8 375138 -149901 
203 1 30.8477 22.038 10.6411 14.6837 1.32504e+06 338851 1.06984e+06 214926 635837 589567 
204 1 29.0329 23.8011 10.7643 0.714208 305369 -720959 316116 -21392.1 250342 290018 
266 1 30.8457 23.951 12.7436 0.576503 213686 28707.3 608228 -278952 375142 143673 
265 1 29.2596 22.1215 12.4966 13.3473 688412 -39714.8 820248 -114437 -56405.9 401686 
2937 1 36.1393 22.1304 9.01627 16.8877 898035 -130137 1.38183e+06 -200395 -195107 -292646 
206 1 34.3955 23.8637 8.94513 0.277059 57621.1 -124681 906683 -300488 -372748 166389 
208 1 32.5966 23.8921 10.9783 0.545887 547584 154985 952320 80804 282918 -45883 
207 1 34.2703 22.0322 10.8516 16.444 1.65671e+06 668816 1.80907e+06 86592.2 85770.9 14396.1 
2940 1 36.0561 23.8334 10.8109 0.614045 -271930 -566794 657866 389900 81300.9 -418109 
210 1 23.9184 27.3961 8.91821 0.213099 -170226 188392 760768 -137576 -153862 -80659.1 
209 1 22.4808 25.4503 8.91316 13.5824 -364284 1.06551e+06 1.20944e+06 112132 -103267 -199628 
211 1 23.9999 25.524 10.8783 0.526908 174559 448551 168518 65287.9 -112277 255065 
212 1 22.196 27.3298 10.8574 17.0379 676025 1.46923e+06 1.77985e+06 -238450 37403.8 -6040.13 
274 1 23.9662 27.3791 12.7793 0.301526 -493139 92937.5 563004 -308732 -391889 -146.653 
273 1 22.2472 25.5762 12.7981 18.2876 499188 1.29283e+06 1.33322e+06 -153998 54987.6 172730 
213 1 25.7379 25.7853 8.9543 0.635633 -880525 -1.26261e+06 659624 236661 -222246 -136373 
215 1 27.4291 25.6893 10.8674 0.346832 -159176 3691.48 542684 -550881 8678.01 -130918 
216 1 25.5717 27.5269 10.7964 0.563492 918072 631910 494299 9694.81 -61396.1 -49698 
278 1 27.4699 27.6059 12.7727 1.00133 30651 -263061 752673 -296131 144962 -168521 
219 1 30.7844 25.625 10.9022 0.321624 49238.3 37016.1 1.11446e+06 387984 223533 390059 
220 1 29.1815 27.3869 10.9009 0.288491 -463859 -339049 911961 -233626 405737 147342 
221 1 32.4894 25.5772 8.98561 0.332459 427287 340544 784262 -260290 270051 319885 
222 1 34.3076 27.2067 8.95628 0.285594 -309447 -8503.78 616908 -259654 21290.5 -247440 
223 1 34.4393 25.5609 11.0071 0.571917 -312978 -45690.9 757635 230768 97893.9 31248.8 
224 1 32.6033 27.3091 10.9057 0.177469 106720 -373278 1.03358e+06 381103 160311 13422.1 
226 1 23.8267 30.9163 8.9498 0.141199 147447 18569.4 494661 795207 118320 275620 
227 1 23.7165 29.2695 10.7571 1.14572 -603166 -171003 781713 267333 430385 263742 
228 1 21.9952 30.8543 10.9607 18.8912 21488.7 520000 1.33847e+06 399627 55647.9 14110.7 
289 1 22.1587 29.1397 12.7779 15.3207 301574 1.19765e+06 1.05314e+06 -142894 -93149.4 125674 
230 1 27.3135 30.896 8.96431 0.256463 -634662 -1.15751e+06 333538 -245200 154726 50264.2 
229 1 25.6229 29.31 8.99493 0.521121 -633178 -650276 345217 -376995 257956 17064.8 
231 1 27.4741 29.3227 10.8785 0.506606 -69078.4 -25797 305656 16810.1 134446 350023 
232 1 25.6204 30.8983 10.9115 0.221944 -563379 -830491 181651 17399.6 193244 -131161 
293 1 25.4964 29.2592 12.7675 0.616722 78244.9 -623547 790375 243774 178264 334905 
233 1 29.1406 29.1963 8.99151 0.294587 -396434 -224267 1.0742e+06 -138679 122665 -99657.1 
235 1 30.9644 28.9931 10.814 0.775319 -675553 -92847.9 378267 202303 356811 -181569 
236 1 29.2785 30.9067 10.9706 0.38736 -196947 -429278 465297 -515946 -128606 39868.3 
237 1 32.6046 29.1474 9.00747 0.593294 -284362 10675.3 368437 -240668 295623 -106523 
240 1 32.6859 30.9429 10.7782 0.473916 109264 -101003 670637 -124508 55289 -304119 
239 1 34.4474 29.0219 10.8221 0.364358 403255 481159 1.07151e+06 295495 73084.1 -158840 
1497 1 22.0754 36.1168 8.92927 16.0612 298042 969480 891933 -88476.4 -394122 -139006 
1499 1 23.6539 36.1457 10.8426 0.938466 -194871 -283090 347899 -121061 -9845.97 -288321 
242 1 23.8907 34.3992 9.16476 1.47314 -204563 -17245.2 651612 25843 -339228 -300568 
241 1 22.0553 32.5988 9.00086 18.0599 518389 1.833e+06 2.02879e+06 283838 -153662 71436.4 
243 1 23.8015 32.5609 10.8823 0.496152 -225374 397400 49322.6 18110.8 -135832 145717 
244 1 21.9637 34.4083 11.0391 16.7254 473067 1.27525e+06 1.63369e+06 -379210 -155734 183065 
305 1 22.1561 32.5534 12.7574 15.1589 -306909 421476 718953 362719 -53251.4 -248357 
245 1 25.7121 32.7219 8.97673 0.736357 -364595 -219977 605339 53615.1 212909 -99811.9 
246 1 27.4052 34.3722 8.9993 0.301889 -639115 -422360 800589 -823493 -46889.8 -97241.5 
247 1 27.3885 32.5209 10.9452 0.556399 -131938 302278 534190 -445967 251269 -55298.7 
248 1 25.5892 34.4827 10.8784 0.40998 224286 276493 -226101 -255210 -445693 175777 
309 1 25.5127 32.7914 12.6902 1.2526 -152315 22439.2 382975 -112876 -128985 -115736 
1505 1 29.0869 36.0838 8.97911 0.291306 -181062 -598334 626734 -245308 46474.9 -51755.3 
249 1 29.1285 32.62 9.09103 0.491472 271047 -68382.1 653791 297178 265686 -266723 
250 1 30.9079 34.4467 9.06601 0.51808 -647833 -136809 669315 -126642 -45199.4 -174518 
251 1 30.9777 32.6485 10.9762 0.301783 -240233 -406409 648942 -63998.6 35207.3 -130670 
252 1 29.1131 34.3662 10.8589 0.304607 -78719.3 -215799 135857 -34703.9 -41912.1 -132856 
1509 1 32.6056 36.1025 8.99786 0.327282 -67426.4 -526615 995622 30478.2 116964 171306 
254 1 34.4064 34.427 8.91601 0.131438 -298250 -148013 674393 -231772 401745 89703.2 
318 1 34.524 34.4643 12.7817 0.285456 -790553 -824903 466874 -325957 274790 210869 
317 1 32.8366 32.6583 12.7815 0.550864 176543 295025 318295 71851.8 5482.72 -120005 
256 1 32.6806 34.4558 10.8326 0.289758 159011 12160.1 208117 -340969 -157079 176048 
255 1 34.4265 32.5808 10.8514 0.234273 -303638 92267.7 782116 -104791 380981 63405.2 
257 1 23.0631 21.9975 12.8683 22.2949 244017 -528151 391217 -917201 -327819 57609.2 
259 1 24.1243 22.1827 15.0009 14.6032 110657 151201 534928 -124270 -982109 -488782 
260 1 22.3682 23.8914 14.6977 15.8919 577311 806942 1.7321e+06 -185002 -4738.49 123152 
262 1 27.4146 23.7942 12.8189 0.528527 -24889.1 31004.7 413422 -158597 70605.2 6441.57 
263 1 27.6193 21.9292 14.6619 16.917 1.87799e+06 793480 2.0872e+06 -196486 288532 119198 
264 1 25.8869 23.8956 14.7149 0.476791 335492 322422 812095 -368584 354717 317516 
325 1 25.9704 22.0479 16.5693 14.5739 -65383.5 56534.2 1563.22 -317443 -301921 44402.8 
267 1 30.8764 22.0817 14.7052 16.4827 1.38905e+06 670323 1.92164e+06 -2207.28 311606 8970.81 
268 1 29.1575 23.8755 14.7173 0.477911 374040 3788.3 969458 -7164.07 78006.9 -61646.2 
269 1 32.6417 22.196 12.958 15.3269 602583 -60051.5 1.06216e+06 -381008 240677 -146811 
270 1 34.4494 23.7209 12.8664 0.564359 20398.3 -328622 799153 -582100 47406.6 220473 
272 1 32.6213 23.876 14.7677 0.185342 18697 -881232 349917 398746 -8291.14 -387813 
271 1 34.3676 22.0994 14.8221 17.443 1.14766e+06 467265 1.23914e+06 -16534.9 -294744 192066 
276 1 22.107 27.3252 14.7625 19.135 745822 1.82012e+06 1.96682e+06 -296441 -9655.53 -132929 
275 1 24.0977 25.6537 14.6616 0.417876 23429.1 -143147 965286 -744595 54493.1 -139955 
338 1 23.908 27.3672 16.675 0.236328 -455727 233526 1.05179e+06 246460 51363.5 -16861.1 
277 1 25.8665 25.7769 12.8084 0.798861 -50101.1 -121688 656023 -206717 497343 -100049 
280 1 25.5293 27.5151 14.66 1.21929 -173528 -475026 502874 -474113 -131024 -50613.7 
279 1 27.4967 25.7297 14.8923 0.704204 -850929 -194978 470646 -1.0988e+06 233266 42071.1 
281 1 28.9833 25.6922 12.9147 1.14314 141261 -185679 358416 -20760.1 104575 71483.6 
282 1 30.8944 27.337 13.0274 1.06201 -609114 -247473 585429 197309 -114740 493919 
284 1 29.1302 27.3572 14.8044 0.606835 -1.03177e+06 -616077 -98191.7 -621904 70425.7 2078.39 
283 1 30.9687 25.572 14.7301 0.376964 -639997 -912769 46761.8 -4954.18 161498 182559 
346 1 30.8667 27.3369 16.5874 0.546876 238449 -265779 636331 -644621 -397904 94907.6 
345 1 29.24 25.5802 16.6553 0.483414 -619650 -756579 478671 -359609 -409843 224690 
3027 1 36.1303 25.5794 12.8559 0.298679 -152099 44719.5 466883 537655 42700.5 -189155 
285 1 32.7231 25.6145 12.8362 0.229223 282519 14845.6 -139979 -42617.1 459587 -507732 
286 1 34.5708 27.3888 12.9141 0.775941 -92387.9 221512 805829 527303 102469 -50402.4 
288 1 32.7418 27.2254 14.6625 0.8476 -34996.1 -28492.5 -97566.7 -316686 -223130 56238.8 
287 1 34.5212 25.4818 14.8093 0.428107 -695087 -303675 301399 332199 239696 -74494.8 
350 1 34.4942 27.2625 16.6667 0.242104 -39269.1 -9372.96 528067 -192770 148072 64717.4 
349 1 32.7398 25.6126 16.6247 0.302078 -199436 -161037 304042 -66915.3 -179261 -123129 
292 1 21.944 30.7908 14.8109 18.6316 497868 1.24261e+06 1.41569e+06 282270 -222899 -378557 
291 1 23.7642 29.1442 14.7331 0.255852 -364690 -22304.7 913805 397100 -17389.9 33433.6 
290 1 23.8602 30.9247 12.8917 0.481076 -917776 -1.12746e+06 752245 863099 12617.7 94042.9 
354 1 23.7239 30.9128 16.635 0.378847 -16087.9 633518 894185 -147143 -83126.2 102151 
296 1 25.5976 30.9206 14.8616 0.393963 -152661 198276 631016 -274184 -302104 -321627 
295 1 27.4162 29.1461 14.7527 0.443717 252148 -305137 396160 -78774.4 -134964 13527.7 
294 1 27.4626 30.8595 12.9289 0.577459 482594 333868 336696 -436820 -202711 60274.7 
358 1 27.2572 30.9238 16.6738 0.414429 -250035 13888.6 438631 422177 -272082 -65420.5 
300 1 29.1318 30.917 14.8151 0.253737 243721 -283649 -262675 -194049 -318294 441808 
299 1 30.905 29.1755 14.9586 0.950111 81076.9 119820 147231 -90987.7 -65189.8 294958 
298 1 31.0041 30.8169 12.8597 0.419032 -328301 -199328 888024 -112112 -340999 100587 
297 1 29.3348 29.1731 12.867 0.702013 -714748 -697368 926568 -418633 -36896.8 101644 
361 1 29.1343 29.3213 16.6627 0.854646 -660322 -316570 300435 -631695 177995 312740 
301 1 32.6654 29.018 12.8398 0.344514 82831.2 137763 1.44974e+06 -149745 -88837 80973.5 
303 1 34.4602 29.1709 14.8681 0.56498 552423 534907 502944 -65834.2 -319556 -188395 
302 1 34.4211 30.771 12.8045 0.594226 546987 425303 988440 68904.1 209555 64493 
304 1 32.6422 30.9774 14.8269 0.465625 -189183 -6483.3 830478 17154.1 -180948 20406.3 
307 1 23.7771 32.6407 14.7185 0.198933 256668 180437 509001 257521 -229363 -127439 