ITEM: TIMESTEP
9400000
ITEM: NUMBER OF ATOMS
5780
ITEM: BOX BOUNDS pp pp pp
2.2769080639441905e+00 7.0023091936071353e+01
2.2769080639441905e+00 7.0023091936071353e+01
-2.8468213406083924e+00 7.5146821340623944e+01
ITEM: ATOMS id type x y z c_csym c_2[1] c_2[2] c_2[3] c_2[4] c_2[5] c_2[6] 
3 1 23.7918 22.5379 -1.10504 14.7223 354582 123574 1.15711e+06 -638229 -46684.2 -42943.6 
4 1 21.9775 24.2663 -0.972625 15.0613 -149131 -214992 747638 -743755 -93230.9 -445881 
66 1 23.7778 24.2152 0.93713 0.672754 -1.29572e+06 -1.33069e+06 493935 -566073 -141777 166111 
7 1 27.0235 22.2985 -1.05277 16.2486 1.44082e+06 500099 1.69433e+06 184251 78311.2 -48403.4 
8 1 25.4694 24.165 -0.980827 0.256273 -896653 -1.01698e+06 518261 -841430 -84289.3 234256 
70 1 27.2054 24.0881 0.933156 0.318339 167189 -318148 673428 195945 59111.6 129656 
69 1 25.325 22.427 0.891649 16.531 887301 -94436 975884 340791 67216.1 68869.8 
11 1 30.6827 22.126 -0.96292 18.486 1.16876e+06 185831 1.63396e+06 390100 218328 74739.4 
12 1 29.024 23.8271 -0.962449 0.442423 -201433 -857657 876321 86210 26315.1 432562 
74 1 30.7404 23.893 0.963067 0.274268 25539.7 -389580 1.19494e+06 32113.3 -133934 -230177 
73 1 28.8926 22.2316 0.88871 16.425 1.43134e+06 380035 1.44503e+06 -101147 377992 385194 
16 1 32.5242 23.8369 -0.99319 0.172717 391005 -382304 410581 535902 126723 533820 
15 1 34.3924 22.2375 -0.852231 16.1953 919754 228189 1.1872e+06 -28742 540951 -92142.6 
78 1 34.4327 23.9307 1.00981 0.173758 402277 -230537 778431 -158967 34124.6 -361699 
77 1 32.6807 22.2115 0.884809 15.4293 1.20304e+06 293797 1.24278e+06 -208281 319064 240166 
19 1 23.5956 25.9138 -0.9115 0.521501 -580801 -453848 278456 -593446 -62398.1 -153902 
20 1 21.7427 27.524 -0.731224 16.4854 366158 326167 270861 121351 -90557.4 -366769 
17 1 21.7823 26.1783 -2.71891 12.6064 9388.97 1.02819e+06 551179 -592845 -160614 -205828 
81 1 21.8047 25.8022 0.952055 14.6401 490578 1.0556e+06 782704 49258.4 168688 78094.6 
23 1 27.3265 25.6493 -0.986122 0.468288 130181 251325 604161 -335512 -256997 273185 
24 1 25.5407 27.5401 -0.884235 0.161024 287131 378757 647694 -477519 -13498.4 -61150.1 
86 1 27.3316 27.4656 0.983727 0.226008 -62834.9 -96169.3 807526 -559491 -253073 373034 
27 1 30.735 25.5107 -1.05773 0.825673 -552688 -95127.3 359965 328072 -192794 132796 
28 1 29.2276 27.4033 -0.871864 0.530871 536636 354227 963820 25103.1 -255043 220245 
90 1 30.8447 27.3614 1.01352 0.203256 -92761.2 212035 725462 -268395 -191044 53640.8 
89 1 29.1466 25.6483 1.01424 0.376473 -410818 -224040 733214 1748.01 -58545.9 -25713.6 
32 1 32.5437 27.412 -0.978395 0.601745 350111 345663 928755 251610 -3741.64 124318 
31 1 34.4527 25.6917 -0.988841 0.4795 517307 533181 741686 149649 17562.7 162362 
93 1 32.5261 25.5514 0.976745 0.239266 261847 446166 1.34821e+06 -47530.8 56886.6 -13966.8 
29 1 32.6162 25.515 -2.80863 0.625543 -125652 -147810 648545 744616 -116441 138887 
35 1 23.5844 29.2202 -0.831705 0.377309 489292 702527 934331 -29830 2387.58 165689 
36 1 21.8196 30.9686 -0.959407 18.5771 428617 1.3041e+06 1.94606e+06 -114686 44147.2 -9991.47 
39 1 27.288 29.1873 -0.808706 0.234564 -55999.3 -491314 500327 -679046 5087.7 68817 
40 1 25.4896 30.8953 -0.839451 0.17083 -198526 -103679 585337 278570 -87851.4 27112.1 
102 1 27.2433 30.8968 1.01614 0.261101 23084.5 -181309 860410 -203444 -167169 -154269 
38 1 27.3299 30.8572 -2.82135 0.211343 67403 -14934.6 540853 -169273 -294981 -200981 
43 1 30.922 29.1885 -0.917613 0.319521 -325760 -375788 1.12758e+06 -246028 -139178 -82508.7 
44 1 29.038 30.8588 -0.972309 0.302344 -247687 -67343.3 865775 -323832 -256708 -186873 
41 1 29.1688 29.1283 -2.83386 0.285512 160368 8545.25 1.01973e+06 -250455 -170840 -69672.6 
2829 1 36.0724 29.0929 0.939803 0.52123 -163086 -449486 336470 58320 -58257 118398 
47 1 34.4071 29.0156 -0.944451 0.251965 -521963 -93109.8 850066 176066 -396567 -181999 
48 1 32.6919 30.7688 -0.807742 0.477513 -92707.8 52296.6 1.03887e+06 -402502 53944.9 -127825 
2760 1 36.1372 30.7671 -0.883916 0.299237 -280586 -500746 694062 197967 49392.3 330999 
51 1 23.6951 32.5117 -0.872173 0.408812 -780721 -223321 982754 654384 110970 223880 
52 1 22.1777 34.3277 -0.877434 14.2845 -5105.02 768974 945174 480026 -83336.1 239336 
114 1 23.7886 34.3883 1.02252 0.131724 -410512 152236 793497 43031.9 -423372 83311.2 
1353 1 21.9355 36.0752 1.02956 18.7286 908820 1.57108e+06 1.74748e+06 153289 -116133 -172061 
55 1 27.2848 32.5959 -1.01173 0.336957 -400779 -579621 727740 76734.3 -155587 -79566.8 
56 1 25.5486 34.2815 -0.972792 0.210296 188076 -223628 621994 229157 30536.6 -2105.56 
117 1 25.4437 32.6185 1.02493 0.130093 118861 -321229 705909 226321 -135068 -275947 
1287 1 27.3194 35.9992 -0.980294 0.28869 -644360 -684922 -77166.7 338869 -179058 -213639 
118 1 27.3464 34.3368 1.04489 0.2629 -442813 -243001 588984 -576961 -84759 133959 
53 1 25.4876 32.5566 -2.80879 0.295404 685781 242811 590608 508914 -89302.1 57186.5 
54 1 27.4096 34.3754 -2.83253 0.581408 -296461 -515886 287515 97913.2 -138656 -151385 
1291 1 30.822 35.9624 -0.872642 0.223407 140777 9351.52 813311 28748.2 -234727 35821.6 
59 1 30.8026 32.5375 -0.797359 0.472493 223989 286701 748746 -218202 64983.7 -24676.9 
60 1 29.031 34.2768 -0.870548 0.157552 -568986 -243709 676310 -34601.3 -83273.9 89869.4 
64 1 32.6368 34.2947 -0.923924 0.157487 105328 42314.3 948415 105622 15763.3 -92839.8 
63 1 34.4214 32.5735 -0.966074 0.258849 594649 700137 1.45993e+06 246955 211697 7634.85 
1295 1 34.3407 36.0522 -0.790789 0.324996 -172821 -337516 860571 174424 78733.7 232706 
65 1 22.01 22.751 1.09234 26.1444 9899.83 80411.9 514620 -514875 -280141 -385162 
67 1 23.6718 22.4861 2.85996 15.6956 190684 391095 954497 -478638 -335575 116915 
68 1 21.7106 24.0932 2.97869 20.7506 933438 501744 705264 73684.8 72009.8 -605048 
129 1 22.1093 22.6345 4.95117 25.1711 453503 295195 1.22739e+06 -641602 22022.4 -126417 
130 1 23.8519 24.1622 4.90947 0.932356 -1.05985e+06 -1.06808e+06 1.14578e+06 -625989 368484 53772.3 
71 1 27.212 22.2635 2.87653 16.9454 937350 181916 1.79958e+06 -618957 82451.2 -173715 
72 1 25.4457 24.0819 2.91963 0.0914657 -189472 -327169 512127 -451086 67809.7 113108 
133 1 25.3536 22.2644 4.77967 16.575 1.11852e+06 68018 1.63766e+06 -162132 -57382.9 53978.6 
75 1 30.9125 22.1113 3.09045 15.8896 1.65261e+06 547594 2.06053e+06 -490451 -94330.7 -246348 
76 1 28.9335 23.8244 3.05619 0.857485 92022.7 -321434 1.03001e+06 -558241 -297151 -30634.3 
138 1 30.6933 23.9369 4.85543 0.455062 261109 -205848 374262 134754 -194395 139984 
137 1 28.9488 22.083 4.89937 19.672 1.62048e+06 653210 1.62798e+06 44680.4 -82361.1 188392 
80 1 32.5642 23.8388 2.95402 0.188206 -168312 -822142 1.05681e+06 -117653 91942.1 -120707 
79 1 34.3382 22.2058 2.94631 15.0857 1.33084e+06 369021 1.55165e+06 315389 102287 -138394 
82 1 23.7172 27.4977 1.06149 0.279865 -52116.7 218803 671561 89037.6 -178549 78505 
83 1 23.6187 25.774 2.96132 0.37732 -608143 -209271 584732 552014 304429 35935.3 
84 1 21.9119 27.3755 3.08118 15.2108 -9843.21 736829 1.39678e+06 556527 -109005 280582 
145 1 21.9858 25.7196 4.93228 14.3377 -135196 717162 456304 46737.3 70810.4 49357.9 
146 1 23.7133 27.4703 4.91649 0.355031 -11607.9 323370 698138 -223865 -82053.9 139424 
85 1 25.5513 25.8363 1.07284 0.372121 -638266 -714415 661132 -152467 -52159.3 6650.36 
87 1 27.339 25.7031 2.92288 0.401302 -228330 -92777.8 577097 -405443 -320633 -156588 
88 1 25.4136 27.4462 3.01122 0.274559 431456 205878 309816 -280171 -58732.6 81558.3 
150 1 27.2571 27.3952 4.92234 0.104569 -644461 -622082 737044 -516242 200943 85745.1 
149 1 25.558 25.7909 4.91014 0.34697 -638298 -1.088e+06 858635 -1.02567e+06 -139173 -64289.9 
91 1 30.806 25.5683 2.92161 0.196735 238986 -6495.87 156116 223310 -193400 -113305 
92 1 29.0537 27.3608 2.96458 0.104379 -436822 -356506 556153 -836178 -234931 38225.1 
153 1 28.9087 25.5869 4.9279 0.313856 -461060 -415502 459925 158787 -71498.3 76985.6 
154 1 30.7621 27.2011 4.82633 0.700029 139890 343918 382572 -8284.21 33246.8 159458 
2883 1 36.0854 25.6157 4.92875 0.220614 -284488 -411069 536910 5822.13 241927 -243791 
94 1 34.3645 27.2862 1.13358 0.549801 254245 238693 952890 109235 -24931.3 54700.9 
96 1 32.6165 27.3097 3.05038 0.219263 -118635 -153196 137000 143238 64814.6 105134 
95 1 34.3294 25.5274 2.98703 0.323163 -82281.7 124561 682000 133192 117445 -75613.8 
158 1 34.3053 27.3294 4.93063 0.111035 -131998 -77177.6 833645 219381 -301842 259826 
2814 1 36.1119 27.3693 2.97209 0.181655 337863 594826 912598 242461 -189076 -5730.33 
157 1 32.6259 25.5282 4.87722 0.279268 297085 257143 438822 -364384 57466.9 257559 
97 1 21.8492 29.1427 1.14446 15.771 276895 1.43375e+06 1.39718e+06 38064.8 49020.3 -332756 
98 1 23.6927 30.8995 1.09525 0.169404 -102854 -53320.3 616537 129312 272270 104728 
99 1 23.6029 29.2404 3.07036 0.237143 189688 134010 775279 -17660.4 -62798.9 48607.1 
100 1 21.9189 31.0504 2.95939 15.9217 100585 1.02273e+06 1.29601e+06 -67684.9 -37968.7 230972 
101 1 25.5045 29.1867 1.11415 0.171382 -79525.9 11038 775250 -311263 -81861.3 142030 
103 1 27.2065 29.2481 3.00967 0.294497 736699 1.12917e+06 872355 40608.7 45573.9 104238 
104 1 25.3748 30.9793 3.13696 0.533807 93173.8 -178300 951142 -37538.8 -19419 30630.6 
105 1 29.0406 29.1777 1.17367 0.559966 67191.7 391454 1.24493e+06 -341955 -225371 237860 
106 1 30.8787 30.8263 1.068 0.281915 175152 117963 937959 -131101 -13565.9 123172 
107 1 30.7915 29.0168 3.05543 0.438024 -132913 -19236.4 446980 -511217 -192249 -19580.2 
108 1 29.1231 31.0775 3.17973 1.79177 -80585.3 226958 365745 -90120.7 -466920 -116223 
170 1 30.84 30.8385 4.8545 0.40056 -733770 -310975 -231028 -345886 -111801 163513 
2832 1 36.1373 30.8237 3.04171 0.13085 170858 202258 1.01024e+06 -98531.9 -78955.7 79984.2 
110 1 34.389 30.8878 1.12977 0.35542 -194022 -358272 587691 110291 -198083 -267323 
109 1 32.6983 29.0501 1.15388 0.474252 309850 102436 1.00275e+06 144834 -219609 177167 
111 1 34.3955 29.0975 3.0494 0.186167 -164189 85289.5 546868 -86620 -121912 103998 
112 1 32.5142 30.8637 3.05968 0.345687 -42385.1 -183864 334931 126766 356470 22675.5 
173 1 32.5938 29.0552 4.86951 0.358447 -30198 -25358.7 519906 407057 28605 -130755 
113 1 22.0208 32.6887 1.06721 15.5372 22760.5 803904 926693 -22965.9 -49030.9 478627 
115 1 23.6815 32.7234 2.97182 0.298147 -884525 -464231 968244 -77057.2 -217106 86748.9 
116 1 22.0074 34.4644 3.14144 15.428 296090 759939 1.3816e+06 147076 -122231 74343.8 
119 1 27.2152 32.6045 3.00332 0.219608 -162567 -80575.4 1.03482e+06 106171 -45830.2 -54513.4 
120 1 25.484 34.3383 2.99161 0.139085 -190440 236769 837158 15429 -437665 -175964 
1359 1 27.3149 36.1195 3.03087 0.268752 -106407 68411.3 334431 400019 215123 308417 
182 1 27.2019 34.4027 4.80941 0.783045 -202033 -440594 754233 462518 -235528 191360 
1361 1 28.9223 36.0272 1.05906 0.602007 -273340 -474135 557417 -696728 -72729.7 228612 
122 1 30.8888 34.2543 1.06414 0.232265 -136844 -418674 310255 -320554 167134 -40832.1 
121 1 29.0717 32.5443 1.07056 0.251438 25800 -178233 341960 -39607.5 276279 -73599 
1363 1 30.7374 36.0627 2.92137 0.445918 181051 251380 759339 -507151 161570 8917.21 
123 1 30.9042 32.6717 3.06669 0.49371 -1.18722e+06 -1.18183e+06 -73892.3 -101502 -390408 212446 
124 1 29.0657 34.2752 2.86104 0.628255 -414939 -367133 169599 -121928 -206014 -32653.7 
1433 1 29.0799 35.9843 4.90979 0.530334 44357.2 292996 993691 271461 -35817 123126 
186 1 30.7921 34.3202 4.91602 0.207066 -965698 -1.245e+06 673805 154704 61174.2 -85933.4 
2919 1 36.0903 32.6078 4.92881 0.309644 230080 549888 694752 -61839.6 181058 7517.3 
126 1 34.3931 34.4096 1.10975 0.285783 203042 108576 532160 130277 -1791.85 245741 
125 1 32.631 32.5714 1.05529 0.0858 -304701 -191619 661599 426504 -303041 -61858.1 
1365 1 32.5498 36.0061 1.05903 0.149946 -476766 -580761 326594 -285994 169144 88914.3 
128 1 32.675 34.3253 3.01063 0.335239 -647561 -394000 281622 -591943 -117807 122021 
127 1 34.3518 32.5511 2.94074 0.29151 3337.39 -42378.7 456454 323162 -57493.4 -326782 
190 1 34.3222 34.3392 4.92099 0.205408 127245 -74536 521630 172152 -136651 328687 
189 1 32.4761 32.6117 4.93403 0.410108 -568993 -450951 -150749 -61012.8 -292830 -135745 
1367 1 34.3778 36.0011 3.09842 0.411948 -602775 -1.27857e+06 249038 -169782 87841.6 -90870.5 
131 1 23.8506 22.3115 6.90063 16.576 594909 350844 1.68207e+06 -543413 6130.5 -26665.2 
132 1 22.0903 24.0926 6.95372 14.332 289053 281066 1.15682e+06 -567392 -51764.8 -225717 
134 1 27.1378 23.866 4.95289 0.494998 128027 -103851 1.09698e+06 -398953 -112512 -104188 
135 1 27.1437 22.1242 6.88401 18.7163 1.8505e+06 530052 1.97081e+06 -83956.1 170218 26707.1 
136 1 25.4831 24.0124 7.03532 0.87986 298271 -648750 566069 -686749 -12613.1 66152 
198 1 27.3455 23.8969 8.81292 0.628013 -390449 -281791 495650 -537891 28738.4 -75167.7 
139 1 30.7317 22.3306 6.80224 14.5202 997019 120100 1.24362e+06 -25406.9 -177710 -69168.9 
140 1 28.8724 23.9312 6.85066 0.446288 -133686 -189045 883098 252839 204216 29531.6 
202 1 30.763 23.8356 8.80004 0.422599 -358006 -814932 152676 256021 447469 -33639.2 
2937 1 36.0342 22.1498 8.79392 17.0427 856843 -19133.7 1.16635e+06 -40640.7 346056 246798 
141 1 32.6185 22.1862 4.98981 15.6297 837451 522690 744354 -221661 -493425 -82301.5 
142 1 34.5541 23.7219 4.96331 1.46891 -153884 -963917 195237 -171456 -161982 100676 
144 1 32.5685 23.9279 6.82007 0.248407 -400125 -1.15921e+06 106330 -319979 -3005.99 36873.5 
143 1 34.2651 22.0752 6.76307 17.5957 770366 128980 736937 -132591 -285095 490315 
205 1 32.5269 22.296 8.68832 15.2608 297889 -257655 1.0278e+06 282817 183362 214849 
206 1 34.344 23.902 8.76596 0.167323 -642997 -1.2374e+06 17487.2 -78804.6 96366.7 423819 
2868 1 36.0914 23.7407 6.87981 0.386311 -140960 -128361 -60729.8 128755 -202452 258287 
147 1 23.6537 25.8663 6.92086 0.660391 -662820 -370220 215449 -412222 -319777 -227137 
148 1 21.7158 27.2787 6.86039 17.9654 472507 1.41077e+06 1.68824e+06 496291 -12926.4 -99256.9 
210 1 23.6251 27.393 8.80048 0.448537 -94137.2 -343523 713478 224485 42215.8 -262412 
151 1 27.249 25.7439 6.88156 0.163308 -990541 -548705 188191 455056 218277 54431.2 
152 1 25.5727 27.45 6.83269 0.437503 -190872 -614172 233574 -253752 77090.8 305064 
213 1 25.5208 25.8418 8.70238 0.768112 -390605 -258949 42026.7 -430056 38468.5 -15667.5 
214 1 27.3906 27.495 8.7878 0.379048 -480249 -936761 -3563.16 -130468 -54766.6 234569 
155 1 30.7436 25.5534 6.8576 0.24043 -383873 -63978 749266 77564.1 -99563.7 80648.1 
156 1 29.099 27.3888 6.86602 0.155856 155706 -287732 395080 -100271 248814 205946 
217 1 29.009 25.7517 8.76394 0.443023 -378291 -759127 -411404 103401 202493 -324389 
160 1 32.4938 27.2815 6.89739 0.318301 443187 340301 1.09297e+06 -212029 94417.5 263509 
159 1 34.3964 25.5334 6.83316 0.258992 -76487.8 -94474.9 726147 -418561 211764 268507 
221 1 32.5129 25.5291 8.72712 0.411385 -329276 -404457 133663 63584.1 121919 -33710.5 
2886 1 36.0707 27.3091 6.8998 0.152617 425800 350687 1.06039e+06 -137572 17373.3 -101777 
161 1 21.8606 29.2459 5.01569 17.6267 94438.6 1.41544e+06 1.76698e+06 -525750 -76667.1 -73821.6 
162 1 23.5336 30.9122 4.96055 0.569546 -226625 371969 938819 -660120 182203 -179478 
163 1 23.5333 29.1609 6.95196 0.666758 548994 1.05564e+06 767334 213265 -42151 66316.4 
164 1 21.9187 31.0405 6.97306 15.0518 312999 1.31602e+06 1.46213e+06 41620.3 -47512 -30823 
166 1 27.2583 30.9323 5.06439 0.27933 -210409 -34065.2 322530 -303370 -132470 -237427 
165 1 25.5276 29.211 4.98176 0.288499 513786 148690 739269 -342640 -28669.5 143327 
167 1 27.2692 29.1513 6.94468 0.244589 -267132 -575478 -4853.71 -522703 -133408 21801.3 
168 1 25.4487 30.9225 6.90229 0.149369 613613 -106089 353040 189378 183479 244810 
229 1 25.4105 29.2375 8.77596 0.463527 473394 626145 785248 -62784.8 198571 172876 
230 1 27.3625 30.7845 8.7787 0.495227 -92207.8 -155038 524854 -117585 -49594.4 -96080.4 
169 1 29.0385 29.0946 4.9559 0.222476 401229 256849 762297 -299916 78081.8 -33133.8 
171 1 30.8589 29.1487 6.82545 0.231654 -60751.2 8754.58 983578 -327330 151765 22709.8 
172 1 29.0217 30.8823 6.81019 0.193959 -63803.8 -81965.8 308942 -183836 -138064 -81263 
234 1 30.9571 30.8944 8.72798 0.405011 -12096.7 33629.7 743140 30371.5 364651 -118729 
233 1 29.1525 29.1196 8.75241 0.206103 -537063 -386381 610905 54070.5 159380 -92435.4 
174 1 34.3485 30.8307 5.07423 0.412108 184098 235324 823679 -99593.6 198358 -291926 
175 1 34.211 29.0905 7.03479 0.925459 290009 48949.6 716462 466336 118675 131026 
176 1 32.5891 30.8153 6.86894 0.144869 -909986 -440271 517826 55303.5 579135 58843.7 
2901 1 36.113 29.1041 5.03892 0.203393 423425 -6156.63 728702 167363 -327377 -264455 
177 1 21.8403 32.7949 5.01066 18.0084 777113 962248 1.21149e+06 -29322.1 -2629.87 -154563 
178 1 23.7769 34.392 5.0731 0.467261 -71202.3 232425 1.12227e+06 330675 -201745 179796 
179 1 23.7541 32.7312 6.97991 0.405291 193572 311773 784857 -182960 173784 193050 
180 1 21.8065 34.4172 6.8002 16.3289 895140 1.51181e+06 1.80014e+06 -51606.7 126697 -428738 
1429 1 25.6055 36.1072 4.96 0.316305 118881 -341246 938421 230758 92023.7 66591.7 
181 1 25.3763 32.6144 5.05637 0.579658 30941.3 -146726 395394 443906 38080 -8227.08 
1431 1 27.3427 36.1184 6.97661 0.229636 -276147 -69284.8 966489 177629 70409.7 262815 
183 1 27.2311 32.6841 6.84524 0.262517 -46366.3 120367 418912 73083.2 2354.36 -398569 
184 1 25.5249 34.4528 6.98913 0.338124 10689.7 -102458 549697 -248637 -151809 -249572 
245 1 25.5728 32.6011 8.83577 0.216244 597271 741392 636043 -267337 63025.5 -241301 
1435 1 30.8804 36.1013 6.96007 0.221093 -515307 -384967 464336 -583437 327131 177907 
185 1 29.0422 32.6906 4.99018 0.381272 -79481.3 -379199 153108 -489488 40629.3 -391429 
188 1 29.0579 34.4253 6.91873 0.297489 22311.1 -308678 471940 189035 91655.5 109820 
187 1 30.8353 32.6138 6.82645 0.123634 -466303 -235348 149564 -404038 268524 139120 
249 1 29.0354 32.584 8.70235 0.410754 83233 -197777 858006 -244471 51171.9 90139.9 
250 1 30.8224 34.261 8.79858 0.397837 -266001 -11095.3 564713 -167094 -52665 120768 
2991 1 36.0551 32.577 8.82759 0.362387 -83746.8 -406680 913355 180132 83234.5 330164 
4323 1 36.1049 36.0766 5.07657 0.343582 -399315 -219219 786908 -206649 107143 128121 
1437 1 32.505 36.0237 5.0093 0.321379 -404289 -640506 343155 -105336 199073 -67666 
1439 1 34.2937 35.9902 6.95464 0.157043 300413 199930 638261 -138601 88298.1 71143.5 
191 1 34.3198 32.5987 6.85554 0.222551 204370 170165 463300 175108 202308 -334282 
192 1 32.5841 34.2436 6.92238 0.191628 -880611 -809336 275955 -166305 -24267.3 125227 
254 1 34.3065 34.3003 8.8213 0.210133 -417615 -909706 479846 -307770 -219974 153596 
253 1 32.682 32.6098 8.82444 0.30483 -660033 -722367 572917 -717342 127332 264203 
193 1 22.3099 22.4379 8.92078 25.1463 410160 259935 1.30289e+06 -644452 -230266 -11837.2 
194 1 23.7746 24.217 8.95715 0.605369 -1.34564e+06 -1.168e+06 663677 -568563 -40325.4 133447 
195 1 23.7909 22.5351 10.9229 14.1465 -8696.12 -6749.38 447750 -208990 64391.5 -170978 
196 1 21.8988 24.1251 10.8519 18.3924 460291 469628 903439 87185.3 -30453.2 342056 
257 1 22.0613 22.4883 12.6531 29.4423 344881 331380 976885 -325028 337095 92271.9 
197 1 25.4654 22.4448 8.91465 13.8363 842613 -357106 737522 -279302 4596.1 258689 
199 1 27.2099 22.2025 10.8662 18.8971 1.14813e+06 578105 944897 37622.5 270694 -189938 
200 1 25.5782 24.1588 10.7863 0.334796 -428537 -947488 265918 -830172 -113948 -154777 
261 1 25.6157 22.5718 12.7425 12.7426 -280500 -485462 346969 -579066 136474 -189331 
262 1 27.4306 23.9644 12.6912 0.532118 -1.37112e+06 -1.07557e+06 444991 -1.27312e+06 -369337 -216970 
201 1 28.9343 22.0651 8.98913 17.3399 1.44907e+06 305327 1.86931e+06 276973 93332.9 -352784 
203 1 30.9427 22.1975 10.6933 15.8876 995823 -127970 1.16929e+06 -242500 -25736.4 107092 
204 1 29.128 23.9252 10.6618 0.362228 101655 -24059.3 416297 -158715 173841 -433612 
265 1 29.0595 22.0969 12.6703 19.0203 1.32605e+06 529848 1.91504e+06 878.814 -304219 -57767.3 
266 1 30.8347 23.8261 12.7019 0.348997 41460.9 -583942 561458 -124728 -113824 276897 
208 1 32.6194 23.9128 10.7469 0.168933 -1.28832e+06 -1.88044e+06 281481 158201 142964 -149890 
207 1 34.4065 22.4044 10.6922 13.422 -408242 -661327 701444 -145572 490668 176169 
269 1 32.7175 22.235 12.6298 15.2267 1.00596e+06 -4059.7 1.17245e+06 -38682.5 69724.6 -23136.4 
3009 1 36.1441 21.914 12.7364 20.4977 2.09131e+06 969230 1.98695e+06 -86860.6 -9259.43 -228428 
209 1 21.874 25.7313 8.91768 17.3417 -60733.9 873437 1.23661e+06 -89373.6 -2930.42 207685 
211 1 23.7278 25.8546 10.8859 0.325901 -88884 -168221 322604 -248920 -69519.7 -479634 
212 1 21.8468 27.5306 10.8709 18.5044 467735 1.32643e+06 1.48314e+06 82431.6 -144589 -36476.6 
274 1 23.649 27.4245 12.7105 0.332011 -283116 -336663 216945 -396053 80128.2 -305756 
215 1 27.3137 25.7342 10.6196 0.382766 -667018 -233269 781052 -690044 226941 124465 
216 1 25.5078 27.4623 10.7558 0.0825561 28973.1 -67251.9 883592 -76022.8 71498.8 -360339 
277 1 25.581 25.6935 12.7351 0.262587 -189510 122116 198326 -590579 -164967 -145965 
218 1 30.8804 27.3866 8.90466 0.495117 -853439 -344423 256.22 -34862.1 494139 158989 
219 1 30.8849 25.6109 10.6958 0.14321 -1.27434e+06 -955663 471670 139497 96198.4 215056 
220 1 29.2043 27.274 10.6208 1.07747 -714016 -556554 -184890 -95499.3 271580 -198823 
281 1 29.0917 25.6319 12.5678 0.319805 124759 -17127.3 727995 -394691 97493.4 47514.7 
282 1 30.9392 27.4241 12.7198 0.498064 51341.3 -258851 665055 -439298 147690 394979 
222 1 34.294 27.3104 8.86745 0.159864 377387 206121 656658 -129796 266263 243774 
223 1 34.3732 25.52 10.7084 0.267815 -536625 -219022 365357 -54285.6 445965 14413.8 
224 1 32.6187 27.261 10.7484 0.160374 -623603 -407736 -74060.8 -152014 5745.37 35795 
286 1 34.2838 27.2383 12.721 0.874274 -154500 -423950 846739 577529 -62534.7 -96593 
285 1 32.6091 25.5045 12.6179 0.551263 -531109 -526740 357368 -207026 39534.6 76567.8 
225 1 21.9823 29.195 8.90592 15.5825 -327124 978132 1.29549e+06 -67409.5 202527 161478 
226 1 23.6139 30.9432 8.86917 0.373404 -434044 -10301.2 551642 -164960 250692 15909.8 
227 1 23.7413 29.1705 10.7551 0.227678 -642146 20112.4 494365 36435 -204941 10293.6 
228 1 22.0815 31.0392 10.8206 13.5538 -93743.6 900191 634591 -120453 92736.5 168109 
290 1 23.7575 30.8904 12.7011 0.367967 50507.3 526607 655985 -193351 -40311.7 245195 
231 1 27.373 29.1653 10.6898 0.305332 430398 297061 721310 -225027 -53084.1 37454.5 
232 1 25.5315 30.824 10.8722 0.542895 157509 356425 881153 -158907 -43431.5 102580 
294 1 27.2156 30.8709 12.7355 0.430418 464329 391740 884689 161138 -80189.2 180311 
293 1 25.4393 29.0258 12.664 0.83278 25356.8 -244086 450949 -39064.6 21219 25030.7 
235 1 30.9066 29.0915 10.857 0.440555 101807 106843 268539 112024 90091.1 -62809.4 
236 1 29.136 30.8756 10.6737 0.314039 30655.4 81491.6 1.1132e+06 -360576 -236858 6804.95 
297 1 29.0417 29.0736 12.6405 0.433183 -200936 407007 1.21734e+06 -596505 218714 287531 
298 1 30.8112 30.8208 12.7485 0.468353 386366 224408 978046 26778.7 -19584.8 -298439 
2976 1 36.1048 30.9091 10.7495 0.346054 28530.2 440804 307186 -289722 -21069.5 158589 
237 1 32.5917 29.1247 8.93052 0.306259 -543580 -316855 422377 101939 316823 107366 
238 1 34.4281 30.8139 8.88093 0.306597 -185898 -426692 674013 -241413 -184468 -35908.9 
240 1 32.7463 30.8566 10.8544 0.489681 -148823 -470407 371962 166279 -218607 -296981 
239 1 34.3953 29.0767 10.7663 0.125029 -157782 -54072.1 311955 213597 363310 30628.9 
2973 1 36.117 29.031 8.87398 0.21944 215489 170182 888701 239509 128522 1854.02 
302 1 34.3665 30.8831 12.7043 0.319319 -654855 120845 194152 16279.8 -29391 -102105 
301 1 32.6995 28.9781 12.6548 0.56736 -604143 -729719 502106 -216473 -6740.35 -110319 
1497 1 21.8477 36.0748 9.00134 17.7248 799979 1.78035e+06 1.83347e+06 374604 222359 181847 
242 1 23.7117 34.4755 8.87542 0.369419 288509 245659 599951 -106391 329658 315186 
1499 1 23.8618 35.9997 10.9756 0.608687 -562725 -368938 996295 -55109.9 -167914 -241413 
241 1 21.8441 32.7193 8.99847 17.4381 673665 1.24738e+06 1.42141e+06 130363 -105393 -151868 
243 1 23.8366 32.7249 10.7659 0.70056 -231865 -18183.7 1.34472e+06 -430797 50444.6 44700.5 
244 1 22.0332 34.3703 10.8413 15.2382 3229.37 810603 884255 21919.7 42571.1 -136141 
1503 1 27.383 36.0497 10.7133 0.445966 312141 203731 869443 -293660 17945.5 -135311 
1501 1 25.5942 36.0644 8.86786 0.261303 -146051 -147434 431011 1096.6 -111214 -304560 
246 1 27.3312 34.3489 8.87498 0.109174 -87420.6 -294168 357578 344208 174353 -192658 
247 1 27.3368 32.5969 10.8291 0.127868 290111 343258 1.18293e+06 92625.9 -107033 264653 
248 1 25.5989 34.3449 10.7885 0.235327 -321716 -524719 1.08226e+06 -46116.2 190412 -87909.7 
251 1 30.8915 32.5416 10.7534 0.224139 -611347 -619465 1.19667e+06 -622732 -58958.3 77383.5 
252 1 29.1658 34.2691 10.8397 0.311398 292630 442764 1.334e+06 58950.4 35809.9 104484 
1507 1 30.9037 36.0785 10.9798 0.758392 -230405 -603931 473567 613390 136655 -209319 
4404 1 36.1277 35.9992 8.91432 0.0678493 -271170 -447547 316951 59316.5 30832.5 -308575 
1509 1 32.5505 36.0176 8.92344 0.244564 -111090 -186234 809998 118429 5096.88 -62856.3 
318 1 34.3695 34.2745 12.7127 0.331503 103180 -463450 -225726 -377108 79130.2 342286 
317 1 32.642 32.545 12.7159 0.174121 -415053 -368543 305930 30592 54493.9 -2202.5 
1511 1 34.4081 35.8686 10.8729 0.850473 -57486.2 -330893 575481 -51012.2 12432.4 347809 
256 1 32.4159 34.3087 10.869 1.08064 -596375 -1.06421e+06 920621 147729 -95344.9 191116 
255 1 34.3494 32.6963 10.8101 0.529872 -385700 -437089 44904.5 -444413 278116 -193306 
322 1 24.0094 24.1005 16.5849 1.18715 -579896 -648136 699929 -661178 -107903 -37265 
258 1 23.7481 24.1509 12.7962 0.203562 -1.0043e+06 -1.2643e+06 212641 -437578 72105.7 -724928 
259 1 23.8391 22.2781 14.6852 16.4898 459393 492596 907324 141296 521214 -96465.7 
260 1 22.065 23.938 14.7462 16.5085 298752 662040 1.47321e+06 85919.2 158463 -97917.6 
263 1 27.2554 22.263 14.7565 15.8462 377022 -281435 979866 -262934 -93431 -171813 
264 1 25.617 24.0656 14.6898 0.373281 -294115 -727696 50706.2 -114984 83582.8 -161047 
325 1 25.5473 22.1483 16.5631 16.3857 1.18339e+06 430046 946990 26574.2 -387197 28102.5 
326 1 27.2947 23.9583 16.6127 0.181753 137589 -587756 587147 299039 -66350 -104881 
330 1 30.9981 23.9924 16.4799 1.31159 169779 -383925 812595 -589133 292237 -29640.4 
267 1 30.8078 22.2496 14.5656 15.6954 1.02391e+06 -21969.6 1.17888e+06 -277762 -284650 322171 
268 1 28.9428 23.9225 14.6125 0.64305 -163022 -296992 842526 -29496.5 -162226 260103 
329 1 28.9665 22.252 16.6091 15.2022 1.37841e+06 310202 1.22941e+06 564466 -293630 -64706.8 
333 1 32.5134 22.0407 16.5512 18.4701 1.25272e+06 641935 1.51955e+06 188709 253141 57501 
270 1 34.4327 23.9496 12.7755 0.650657 -33987.5 -154443 583489 -202007 -38506.7 -191980 
272 1 32.5949 23.8525 14.582 0.325966 -376624 -236549 341778 -216876 338750 -131087 
271 1 34.445 22.1197 14.7137 16.0636 1.1699e+06 373940 1.80525e+06 -456437 40493 -28257.2 
273 1 21.8409 25.7263 12.8201 17.6837 284088 1.25194e+06 1.32962e+06 -33934 -59923.7 -302505 
276 1 21.9638 27.4148 14.7025 17.5822 477520 559117 817251 320824 128445 -34996.7 
275 1 23.7617 25.7572 14.6091 0.461951 -574735 -280517 93737.8 -39678.7 483737 -101875 
337 1 22.2047 25.8273 16.5241 13.151 -95399.1 454657 542570 -302257 249938 186560 
342 1 27.3031 27.5299 16.578 0.477967 -604655 -560487 162321 -447458 104279 -239791 
278 1 27.331 27.4463 12.7536 0.386571 -327939 -242470 877224 -475433 -256743 168483 
279 1 27.3297 25.7243 14.6072 0.162236 -804858 -845375 834286 -442279 -132162 140543 
280 1 25.5305 27.4353 14.7136 0.187478 205483 132172 619874 -82900.1 -24215.9 -36001.3 
283 1 30.8493 25.6539 14.5889 0.322632 503830 93541 595274 207736 -78988.7 57324 
284 1 29.0505 27.3476 14.6166 0.316336 -564477 -492001 723340 -112671 -98332.4 -118167 
346 1 30.9514 27.1406 16.6125 1.1756 -839849 -124226 564689 151600 343833 17884.8 
287 1 34.4173 25.6106 14.7078 0.379524 732208 731308 326090 69961.6 996.461 -217866 
288 1 32.6409 27.3754 14.7504 0.631158 -386173 19268 686388 245548 356771 -6379.96 
349 1 32.6761 25.5455 16.6026 0.226272 -1.24285e+06 -919339 998229 199405 118034 -126854 
289 1 21.9766 29.2537 12.7519 16.7228 136169 1.10927e+06 1.47521e+06 -120619 -77972.4 -122970 
291 1 23.7496 29.2584 14.6013 0.404991 -423135 376448 521615 -106045 99985.8 166898 
292 1 22.0594 31.0603 14.7938 14.5432 268784 839395 1.22995e+06 -80295.9 -80360.3 203371 
353 1 22.0389 29.1832 16.4756 15.4271 439205 1.08696e+06 1.03185e+06 275719 79443.5 130781 
295 1 27.403 29.1465 14.6634 0.405527 360433 -162825 431051 235723 120586 18755.9 
296 1 25.553 30.8683 14.6949 0.151565 -283168 -311014 637499 -477069 224907 454247 
357 1 25.4872 29.219 16.5508 0.435888 -487997 -1.11995e+06 214801 -424592 -61021.2 241758 
358 1 27.3813 30.771 16.6423 0.248571 16904.6 461507 510284 -149091 152363 243709 
299 1 30.9048 29.029 14.7541 0.471079 -133412 200980 762619 105375 426658 -224186 
300 1 29.166 30.9406 14.8102 0.837726 -148766 48254.5 687872 -632438 280210 102541 
361 1 29.2364 29.0215 16.5429 0.636211 -297864 313964 195358 -257616 186187 43631.4 
3048 1 36.1146 30.7919 14.696 0.36517 81621.1 -138060 553572 -319711 188546 230314 
303 1 34.5973 28.9216 14.6478 0.956382 -84678.4 40663.3 871367 -229868 193629 -115877 
304 1 32.7429 30.6937 14.5498 0.814362 373318 379498 771999 -216611 400284 79135.8 
365 1 32.7598 29.048 16.6306 0.249868 235290 -276166 692153 67089.3 40350.8 -129634 
1569 1 21.9392 35.9702 12.8871 17.8536 337156 1.22771e+06 1.51209e+06 322295 -114782 135039 
1571 1 23.8336 36.0488 14.6437 0.688234 -269459 -162141 527191 -131381 -32862.2 25004 
305 1 21.8597 32.6348 12.8222 18.496 815027 1.43768e+06 1.64974e+06 -204475 -40646.4 25508.7 
308 1 21.9408 34.2601 14.8741 16.954 395370 1.16207e+06 822838 312535 29741.6 446445 
306 1 23.6809 34.3002 12.9003 0.805733 22761.3 -169424 547950 391699 -130100 175739 
307 1 23.8687 32.7085 14.7588 0.352114 -113622 -312886 305299 -44307.4 263483 378196 