ITEM: TIMESTEP
12000000
ITEM: NUMBER OF ATOMS
5780
ITEM: BOX BOUNDS pp pp pp
2.7139742590087845e+00 6.9586025741006750e+01
2.7139742590087845e+00 6.9586025741006750e+01
-3.8729953761838858e+00 7.6172995376199424e+01
ITEM: ATOMS id type x y z c_csym c_2[1] c_2[2] c_2[3] c_2[4] c_2[5] c_2[6] 
4 1 21.5292 24.0573 -2.12027 13.5197 304762 -304050 -396594 153265 253722 674531 
3 1 23.2769 22.3091 -1.9588 15.6733 248257 317032 865876 -261042 -401066 141971 
66 1 23.4045 24.2077 -0.14016 1.04961 -704101 -1.34808e+06 208490 -632271 -74697.2 110761 
65 1 21.478 22.903 -0.0222062 26.8782 65834.5 112537 45420.3 -551906 -130756 25758.4 
69 1 24.897 22.2497 -0.0823105 17.5323 991492 167818 1.35724e+06 -178423 -229555 -7323.75 
8 1 25.0889 23.9075 -2.16747 0.603553 -500625 -648926 624965 -127783 -19715.8 34153.7 
7 1 26.6236 22.0878 -2.1187 16.5278 1.40361e+06 215649 1.77832e+06 430502 -247164 -6445.1 
70 1 26.7279 23.8706 -0.226054 0.4343 4944.29 11770.8 377650 -36716.7 58726.6 92249.1 
73 1 28.3783 22.0763 -0.200938 16.3349 1.28066e+06 501969 1.76097e+06 325644 -211082 -87129.7 
12 1 28.5908 23.7371 -2.27349 0.707594 329910 -148751 664192 273239 166160 57725 
11 1 30.2599 21.9918 -2.15304 17.7279 943524 174263 1.22243e+06 260615 61719 -34443.2 
74 1 30.3569 23.7388 -0.289681 0.157775 716171 -121300 618606 190213 -153926 62780.3 
16 1 32.1694 23.6442 -2.30125 0.459183 5058.05 -562127 -174741 229309 -153504 -274738 
77 1 32.1763 22.0264 -0.259925 15.4426 565082 -22380.5 858542 -166655 -144877 -235334 
15 1 33.7807 21.7972 -2.21279 16.4162 1.05033e+06 145707 691494 456703 -108754 155628 
2793 1 35.8029 21.7623 -0.430863 16.8958 1.56934e+06 494126 1.23806e+06 -104462 78078.9 255091 
78 1 33.989 23.6319 -0.484783 0.41635 -134594 -497336 584826 -417239 81518.1 55636 
2724 1 35.9661 23.5174 -2.15136 1.20312 53229.2 -1.01991e+06 -243986 -132687 148778 -356300 
81 1 21.423 25.7031 -0.329173 12.9896 315803 907255 644841 80643.5 169070 -1519.63 
20 1 21.4947 27.4248 -2.22142 16.3676 -103976 502733 505512 -41002.2 231931 -90427.2 
19 1 23.3692 25.8168 -2.02684 0.76124 -199260 -279527 -62732.9 -172278 202922 147270 
82 1 23.2019 27.5202 -0.237169 0.517501 9688 -295301 311593 275709 -83327 74207.4 
24 1 25.0705 27.514 -2.25969 0.76865 104855 -1.09597e+06 -181811 -612147 77662.1 595799 
85 1 25.1629 25.9215 -0.146115 1.03198 -619369 197901 194856 -521410 376566 -151198 
23 1 26.8356 25.608 -2.09057 0.41642 424154 579349 728006 -340795 -43236.4 -50187.7 
86 1 27.0834 27.4092 -0.280743 0.542141 -573422 -865541 -23887.7 -192241 486271 201299 
89 1 28.6164 25.6003 -0.249892 0.269622 -64917.7 177050 550856 616925 140613 364944 
28 1 28.7079 27.3927 -2.15183 0.402498 -109669 -406001 -275372 206230 313219 -333035 
27 1 30.393 25.5203 -2.08186 0.616178 216499 121029 226476 -128743 -18231.5 1814.96 
90 1 30.6184 27.3141 -0.313323 0.290562 96113.8 -43767.9 103046 226001 -298505 -115105 
93 1 32.3043 25.4186 -0.315945 0.248184 82750.3 -551629 -83348.8 127011 -6316.76 -18325.6 
32 1 32.4078 26.9994 -2.26524 1.19407 -407766 87908.7 108610 146210 110020 -48325.1 
2811 1 35.8499 25.2898 -0.464197 0.240581 -473096 264148 -685991 53945.1 165171 -396605 
31 1 34.1768 25.3055 -2.37218 0.681596 86738.6 -206446 -56938.6 398581 43728.7 176703 
94 1 34.1434 27.1229 -0.448155 0.139931 104491 549831 264198 -76769.4 -252635 293887 
2742 1 36.0027 27.1291 -2.38384 0.550576 -499008 -739314 -9181.94 -79469.2 165547 228502 
36 1 21.5161 30.9711 -2.14725 16.95 298053 648566 944308 205670 -4454.76 547024 
97 1 21.458 29.2056 -0.296377 16.718 -71639.8 906181 1.55492e+06 -85849.6 144028 96859.5 
35 1 23.2006 29.2121 -2.20003 0.291478 -623500 -15887.8 409442 96804.1 168588 66513.3 
98 1 23.2071 30.8336 -0.16863 0.432615 -566292 -375045 876794 -418572 -197411 -210475 
40 1 25.1061 30.8564 -2.16521 0.16779 221361 -518802 -273370 -153586 -84911 -298173 
101 1 25.0759 29.1584 -0.27111 0.269522 513533 348782 388853 -271874 288463 96473.6 
39 1 26.9322 29.1043 -2.07709 0.50048 -789635 -708805 125604 -197216 -293188 81677.6 
102 1 26.916 30.9044 -0.37598 0.380512 607329 23934.2 -57383.7 -73586.2 -136626 -170742 
44 1 28.7067 30.758 -2.31052 0.466541 -305623 165466 -377778 -601867 -231615 151714 
105 1 28.867 29.0778 -0.445607 0.325003 -417508 -1.02941e+06 -240544 -756066 -283779 -284626 
43 1 30.755 28.8928 -2.34345 1.51761 -77895.8 212521 -605214 -292715 399423 118528 
106 1 30.525 30.7896 -0.539919 0.958859 -443761 -1.04611e+06 -435969 35910.4 290034 276816 
109 1 32.3859 29.0946 -0.445335 0.495549 -348587 322483 100853 -444713 66510.4 292549 
48 1 32.4973 30.7509 -2.30497 0.429907 -383418 -336235 -320382 -121235 154648 -85830.6 
2829 1 36.0752 28.9172 -0.529732 0.454701 -36845.7 -97672.4 125310 336714 301961 153686 
47 1 34.1473 28.8926 -2.3014 0.139803 221684 -30211 48358.6 264799 414132 -56889.8 
110 1 34.2301 30.6968 -0.439366 0.343048 -576702 -552434 -533891 115591 -8214.85 145740 
2760 1 35.9321 30.7787 -2.34179 0.175554 150474 79466.9 56475.7 280219 245664 -570.531 
51 1 23.3471 32.6996 -2.14786 0.243761 -644182 374710 451642 -197769 -906026 167466 
52 1 21.5409 34.4586 -1.99825 18.0723 602269 1.58951e+06 1.77886e+06 -10272.7 -35936.5 -133688 
114 1 23.363 34.4679 -0.149058 0.236865 -164696 448498 212018 107758 -54685.1 -145331 
113 1 21.5193 32.6318 -0.120591 17.4595 684597 1.67246e+06 1.93573e+06 334975 -186959 -3141.61 
117 1 24.9606 32.5166 -0.310801 0.907635 -109820 89336.6 80730.9 -18857.9 -24667.3 -217299 
49 1 21.6237 32.6671 -3.87138 16.1985 -256807 639295 732779 93037 -126758 194541 
56 1 25.0475 34.4402 -2.0793 0.344856 -204876 145800 705956 -204116 -163174 99826.3 
55 1 26.8798 32.627 -2.13165 0.262131 546182 -357831 -315502 -238557 -162775 126524 
118 1 26.9148 34.2411 -0.29857 0.351462 830885 586964 302583 89761.8 -100087 -311409 
1287 1 26.9135 36.1228 -2.17775 0.196108 -144605 -173401 492952 126069 149537 -284706 
60 1 28.7367 34.4212 -2.22596 0.329293 109011 -19263.4 113177 -133082 -170333 -117996 
121 1 28.8862 32.6006 -0.428738 0.44044 -276637 -169061 134899 270456 -19473.1 110149 
59 1 30.5928 32.5004 -2.23899 0.268389 437471 -89561.9 -27607 -323041 178775 232643 
122 1 30.6759 34.3233 -0.300052 0.373966 -509566 -440186 76526.6 -368793 -109548 310083 
1291 1 30.6002 36.0655 -2.15931 0.196615 338458 59204.9 234072 -270919 259163 -207701 
64 1 32.4041 34.241 -2.30308 0.169999 -55739.4 -43926.7 179083 -39617.9 -262311 41277.3 
1361 1 28.8517 36.0395 -0.322251 0.119986 586677 48427.1 -101908 216094 165459 153339 
1365 1 32.4739 35.991 -0.33346 0.493792 -422880 -260401 210595 -262086 -87690.8 227844 
125 1 32.5692 32.482 -0.466827 0.4923 -127602 -508251 -583587 106417 123277 223768 
4242 1 36.1177 35.9873 -0.598661 0.529494 -288908 -512551 23904.2 -72285 122860 43107.7 
1295 1 34.21 36.0239 -2.33775 0.1319 52354.8 -414071 -493189 -345325 -268669 326690 
2847 1 36.0784 32.5652 -0.533505 0.255072 -35701 -98700.8 -136464 193887 185209 -121981 
63 1 34.2313 32.5278 -2.4061 0.19524 -597980 -346680 -140221 332970 408004 -480428 
126 1 34.2572 34.2698 -0.606455 0.351362 -450152 -522086 15171.7 -12710.9 -278686 68648.7 
2778 1 36.148 34.329 -2.43174 0.512803 82345.2 -459150 -426143 108930 460363 -363493 
68 1 21.3846 24.4392 1.79384 20.4569 627722 -134498 -858781 120171 53539.7 -269385 
67 1 23.1737 22.6887 1.84405 15.0178 569064 585469 1.06801e+06 -11539.1 -220178 323330 
130 1 23.6956 24.5611 3.58113 5.34449 -1.68014e+06 -736865 -739475 -1.22941e+06 668375 376962 
129 1 21.7396 23.3874 3.92137 26.7375 -307346 -229498 347017 -528210 -60814.7 458505 
133 1 25.0244 22.4164 3.68069 16.872 515205 78435.2 554017 -181479 -83359.3 2736.17 
72 1 25.2777 24.0849 1.71625 0.845381 -391734 -309727 -65226.9 -246351 461330 90233.8 
71 1 26.6943 22.0788 1.85708 18.1122 1.12427e+06 416117 1.42634e+06 198082 74498.6 -135481 
134 1 26.963 23.9637 3.62085 0.328844 -269929 -48821.4 -454741 -263344 -131006 328968 
137 1 28.5245 21.9536 3.62671 19.4166 1.67356e+06 1.05388e+06 1.76013e+06 218020 -107074 -44126.2 
76 1 28.5021 23.898 1.62094 0.516734 551425 4964.69 820343 530681 166061 -82884.2 
75 1 30.2574 22.1063 1.64985 15.6711 1.44479e+06 476386 1.46994e+06 -1243.96 -69412.4 98637.5 
138 1 30.4662 23.8452 3.52721 0.22196 921728 245202 878893 510417 -84487 59871.2 
141 1 32.1882 22.0701 3.399 16.6815 1.59112e+06 525067 1.61913e+06 268713 -20673.1 210355 
80 1 32.2258 23.7081 1.5166 0.112183 574338 -576188 138124 288581 -77490.4 -45985 
2796 1 35.8165 23.5312 1.45956 0.3578 -185752 -736577 585729 374729 311603 186691 
79 1 33.9878 21.8367 1.38164 17.3566 1.16864e+06 648356 1.53342e+06 -133878 -189870 141897 
142 1 34.2282 23.7272 3.33001 0.60877 -212221 -753568 317187 -87781.2 122094 232578 
2865 1 35.9154 21.9384 3.44477 15.9496 708494 -182218 860947 -109139 363592 -31850.3 
145 1 21.3013 25.8128 3.74165 22.2293 735624 193653 96554.7 -228201 -252390 -784907 
84 1 21.4014 27.4327 1.70181 11.0411 699616 1.91775e+06 1.78352e+06 129454 134573 -132642 
83 1 23.4151 25.9041 1.56795 1.15327 369079 -189820 -1.26971e+06 45824.1 316606 -46734.3 
146 1 23.3924 27.1844 3.63801 5.41142 -671720 320377 1078.29 961895 119358 -609568 
88 1 25.3458 27.5556 1.69066 0.75256 227194 -925000 -639839 -27589.4 17504 -251350 
149 1 25.4764 26.0538 3.58408 4.80713 -1.8069e+06 -337226 -649895 -301812 255071 625107 
87 1 26.9972 25.773 1.72624 0.23392 -932609 -561965 -41956.5 503561 464962 54249.4 
150 1 27.3308 27.7169 3.51462 4.47573 -1.29962e+06 -280216 -506978 -218047 -213852 583999 
153 1 28.7921 25.7246 3.54122 0.19708 -14382.7 -165962 625661 117716 -245266 50555.5 
92 1 28.9138 27.5048 1.61345 0.42555 -231655 110204 108648 111507 251578 -63192 
91 1 30.5562 25.4911 1.53268 0.234165 107448 88647.3 469536 43278 42793.5 -112180 
154 1 30.7319 27.2694 3.41408 0.581317 44234.7 204267 810711 -33915.4 -95710.5 69882.9 
96 1 32.402 27.1362 1.37891 0.808969 368197 394156 128109 -61679.2 -51883.6 -192414 
157 1 32.4427 25.4913 3.32552 0.407739 389220 398417 744115 295643 -212047 193886 
2883 1 35.8584 25.4307 3.40991 0.387444 -1.08278e+06 -315613 73783.4 -562542 151295 75904.4 
95 1 34.2493 25.3727 1.42419 0.657946 -133768 -25274.8 110228 305275 145913 452100 
158 1 34.2085 27.3336 3.42315 0.378993 90017 48115.2 1.21536e+06 -132638 -48547.2 303987 
2814 1 35.914 27.2396 1.34324 0.415818 -307512 -138000 455180 30327.9 -175360 47640.8 
161 1 21.8132 29.0533 3.68504 14.1892 -173395 583823 632594 -36708.4 281719 156149 
99 1 23.3104 29.1579 1.72888 0.319206 -141243 439586 307016 -143734 413082 -317363 
100 1 21.4712 30.807 1.86786 16.4692 637669 1.34443e+06 1.61399e+06 265799 21149.7 5925.72 
162 1 23.4835 30.7954 3.59987 0.0900509 -671653 -482201 70885.9 -324983 514876 -192601 
165 1 25.268 29.093 3.53627 3.88915 53357.2 -125209 -578433 426432 304958 -668152 
104 1 25.1626 30.7711 1.67547 0.269003 -88205.5 38579.5 281560 -318128 6858.35 8201.78 
103 1 27.1476 29.1799 1.547 0.29914 -184031 -903820 -295755 -108631 137947 -282770 
166 1 27.1212 30.7426 3.35539 4.1493 272559 72286.3 -90357.4 -180915 -89386.6 -451425 
169 1 29.1226 29.2621 3.42437 4.36175 -1.23947e+06 -714593 -979.489 -1.09089e+06 9474.73 217162 
108 1 28.9547 30.8595 1.37628 0.458827 -651968 -636537 -92377.1 -452188 373503 372.226 
107 1 30.7293 29.1661 1.44146 0.381664 -233678 3231.8 67185.2 -137036 265886 -265924 
170 1 30.7752 30.8908 3.32053 3.65551 -785073 -615610 -17999.1 -687229 -105015 243543 
123 1 30.7289 32.4326 1.29652 0.871676 -1.09873e+06 -1.21795e+06 -527442 -117292 -222109 25536.3 
112 1 32.5214 30.9186 1.41647 0.4209 -1.13634e+06 -1.13547e+06 -249574 179848 302240 9405.86 
173 1 32.4598 29.0822 3.35383 0.160785 398737 464116 1.1323e+06 383724 -44060.3 87183.3 
2832 1 36.0497 30.7735 1.34187 0.274223 -1.01386e+06 -452051 419326 -289111 -178031 210434 
111 1 34.2581 29.0985 1.37073 0.334851 307989 172925 469645 207831 -254999 551881 
2901 1 35.9165 29.0089 3.27844 0.246709 -60541.7 36334.2 448160 -580092 -135429 130142 
174 1 34.259 30.9763 3.31265 0.381304 -333479 -273859 73050.7 586506 -471121 173211 
177 1 21.71 32.6188 3.63394 17.842 550575 1.26026e+06 1.52371e+06 -138878 154726 12366.6 
115 1 23.361 32.5679 1.64519 0.274747 -9941.49 571506 482786 -245647 206781 -145028 
116 1 21.7158 34.5976 1.79028 16.0773 297368 1.6374e+06 1.20503e+06 -227172 -92244.3 8672.13 
178 1 23.4461 34.3705 3.59371 0.525959 -454173 -28745.8 607161 95088.8 219296 -21533.8 
1429 1 25.4157 35.9272 3.55684 0.350802 -17049.6 191773 552066 229875 67703.9 -296070 
1359 1 27.0656 35.9967 1.60493 0.16613 -43381 184538 522810 223549 51345.3 -30589.6 
119 1 26.956 32.499 1.53807 0.241239 743460 299280 451051 -97724.2 -206411 24325.6 
181 1 25.2068 32.5657 3.55138 0.400995 571129 426942 464005 -181518 170714 -160889 
120 1 25.1142 34.2927 1.60419 0.433065 76238.6 -149855 327574 107730 -123017 -79737.9 
182 1 27.1699 34.2441 3.44984 0.0587895 -54695.3 -415946 741125 521970 325371 -109946 
1363 1 30.7148 36.117 1.49409 0.461854 -428550 -123512 163475 321163 284045 -135705 
185 1 28.8608 32.5448 3.25484 4.68221 -327127 -383127 700666 111979 -26078.4 -131428 
124 1 28.8651 34.3087 1.44386 0.27061 -21601.9 -181022 -722853 216274 -62049.8 212867 
186 1 30.6798 34.1436 3.13687 5.66353 -451672 62718.5 795424 403341 71185.9 -153785 
1433 1 29.016 35.9066 3.35886 0.322867 -125659 -310847 305904 240777 252594 81018.7 
4323 1 36.1279 36.0474 3.33549 3.89078 -455484 -284401 422494 572728 -165261 428424 
1437 1 32.5585 36.0266 3.31269 3.63964 225088 490694 342824 453441 240686 -115501 
128 1 32.4953 34.247 1.35203 0.265259 38961.5 -190501 -458707 -14678.1 -216571 505556 
189 1 32.5549 32.5762 3.24995 3.47672 -735844 -773667 76218.3 622109 -171490 95669.8 
127 1 34.337 32.4842 1.33594 0.401375 -788289 -752049 -108487 -340871 83610.5 147429 
2919 1 36.0587 32.6923 3.40589 0.586576 -728832 -795272 361626 293708 40946.7 93676 
190 1 34.3535 34.3847 3.21705 3.72716 -710573 -208397 8708.89 430570 21669.1 243074 
2850 1 35.9843 34.3032 1.32031 0.49637 -432011 -360084 280557 204104 525169 -12778.3 
1367 1 34.3293 36.0573 1.32815 0.237791 -177445 -606272 -213404 145260 -209621 339494 
131 1 23.4199 22.6658 5.62276 24.3552 78545.8 -587337 447029 261382 -49529.5 -57432 
193 1 22.6177 23.5846 7.75161 21.2293 399377 622341 718080 -626572 105032 144122 
194 1 24.5747 24.8869 7.90113 5.2079 -1.47107e+06 38921.8 427006 -753990 -303230 -251362 
132 1 22.7129 24.9298 5.73883 8.37847 105613 -807653 99571 -178145 525586 -18360.4 
197 1 25.0583 22.293 7.36798 18.5842 675403 909747 596924 -414501 -82947.6 32837.4 
136 1 25.2811 24.2536 5.44641 4.97711 -688366 -508280 -211093 -119334 -652083 74028.5 
135 1 26.6906 22.2508 5.45167 15.5816 830978 -328952 505058 108995 -116082 -113716 
198 1 26.8806 23.9528 7.21976 5.96027 -209496 -331277 -430218 58301.7 -92704.1 -229831 
140 1 28.591 23.9512 5.41615 0.492543 511290 511443 347894 -72227.7 -104533 38933.8 
201 1 28.6987 22.1632 7.30932 16.5592 801254 498336 1.14099e+06 -42404.9 53409.8 -83482.8 
139 1 30.447 22.1069 5.37526 17.0494 1.42089e+06 492154 1.57461e+06 -274392 87707.5 100508 
202 1 30.6123 23.8263 7.30018 0.408543 558569 270547 563841 -98740.2 128850 -76102.6 
144 1 32.2532 23.8044 5.35073 0.575993 520112 23078.4 514394 -84888.9 -145789 228374 
205 1 32.4954 22.1654 7.16093 13.1714 852849 -257337 618677 -276107 -53020.6 110669 
2868 1 35.9247 23.6676 5.25976 0.09785 -593343 -1.21086e+06 -4774.8 -577224 -95917.5 -139512 
143 1 34.1697 22.0493 5.24813 15.6673 767847 249009 958542 -508904 348352 79278.5 
206 1 34.2074 23.8243 7.16934 0.389643 -892264 -1.30013e+06 405116 108459 -135837 -38485.1 
2937 1 35.8296 21.9225 7.2013 18.1689 818779 -27396.3 1.19807e+06 -384047 65409 -49571.3 
147 1 24.3682 26.6572 5.82744 5.36958 351292 -133692 817620 -743329 -35350.8 28021.9 
148 1 21.8079 27.3173 5.55293 16.9955 464866 428902 40432.7 -173969 219516 -351726 
209 1 22.7256 26.5679 7.87668 8.88511 252908 845244 956026 147476 119347 102071 
210 1 24.5318 28.3348 7.8034 5.94589 646825 568619 748734 -453045 -19015.3 -242030 
151 1 27.0338 25.9696 5.46229 5.66634 -349715 -345110 -349.448 -190127 -585210 107396 
152 1 26.2209 28.2429 5.81453 5.72483 484304 -196894 955284 -266373 17809 -335831 
213 1 26.4361 26.3987 7.89016 6.13649 -68610.8 7668.63 231182 -637324 387421 6883.73 
214 1 28.1565 28.2604 7.54383 4.95495 222281 398502 500840 184428 174989 -284337 
217 1 28.7676 25.7517 7.1994 6.14472 -310586 575052 491165 -356790 -95271.6 -180246 
156 1 28.8914 27.5822 5.31795 5.02799 -256301 -94326.3 -644861 -338166 -425340 82287.7 
155 1 30.564 25.6764 5.38314 0.336171 546300 84963.5 447696 -26921.8 -12342.1 -247030 
218 1 30.6278 27.2971 7.23301 5.1882 316326 785736 -79585.3 -350417 -207683 -462877 
160 1 32.4529 27.3602 5.38429 0.387031 421739 818742 1.00257e+06 -66938.3 -206880 44445.8 
221 1 32.5661 25.4801 7.27162 1.05286 -18443.4 -77358.3 703414 426496 -316459 -316246 
159 1 34.2268 25.4718 5.16894 0.519173 100005 348096 10151.2 200988 389862 98693.1 
2955 1 36.0357 25.4625 7.10428 0.405776 4590.81 66455.4 338068 -98810.5 62768.9 -16456.1 
2886 1 35.9956 27.3251 5.24131 0.201084 -124694 21094.2 382987 -268756 -156407 73317.3 
222 1 34.2561 27.3428 7.12205 0.16211 -263042 672972 93718.3 -193857 -434109 34278.9 
225 1 22.049 28.9596 7.37917 14.5977 652443 1.13691e+06 1.12157e+06 -20437.8 152979 -60776.3 
163 1 23.7122 29.0396 5.44812 5.39537 -217904 118545 327976 -267037 325643 254042 
164 1 21.917 30.8878 5.50524 15.6238 227745 1.04812e+06 1.19709e+06 -407048 501817 -92024.1 
226 1 23.8884 30.8017 7.48843 4.89364 139418 -26146.9 -454615 -272909 128224 81245.7 
167 1 28.0611 30.0286 5.65629 5.65248 610648 67753.3 814992 -486881 134641 130670 
168 1 25.4819 30.714 5.38217 5.60852 289252 -187097 329942 -810125 -29737.7 -316605 
229 1 26.4075 29.9536 7.63227 4.96303 129645 -14604 430525 -13679.4 -8353.17 -165120 
230 1 28.2067 31.7261 7.58748 5.36646 332002 -100994 270863 -208603 -56804.2 28346.1 
183 1 27.2263 32.4052 5.31391 5.1947 180978 -129398 479261 68104.8 174561 -196466 
171 1 30.7462 29.2116 5.29303 4.79926 -48686.6 230088 -99788.3 -521173 -95849.1 -48971 
172 1 29.787 31.6871 5.60314 5.76069 711972 228404 1.16469e+06 -627380 362041 94791 
234 1 31.849 31.7079 7.5804 5.38087 -529117 284574 355826 33509.2 352465 -159879 
233 1 29.9996 29.9263 7.49032 5.44265 532722 783566 288760 -113126 263485 -319937 
176 1 32.4086 30.9544 5.20931 5.73091 -70866.1 -285087 -26578 -386947 -512671 180203 
237 1 32.5415 29.2657 7.17261 5.27738 -127477 -274690 85522.8 -481628 -33784.7 217289 
2904 1 35.8974 30.8888 5.17908 0.336831 -647761 -351567 51573.3 -341748 -98399 210693 
2973 1 36.0536 29.1263 7.15195 0.490769 -117264 -520212 -68830 -487718 -77439.5 -43165.4 
175 1 34.2406 29.2206 5.30079 0.327073 -91904 -306699 403927 -517172 229010 -170404 
238 1 34.1181 30.9729 7.054 5.80946 -1.13256e+06 -727682 -235566 -840325 -14233.4 -150173 
241 1 21.998 32.5375 7.51937 18.0527 208081 1.07433e+06 1.05324e+06 -283973 23805.9 -279483 
179 1 23.6238 32.5705 5.50589 0.125706 -327250 290627 618585 -861711 336448 -234691 
180 1 21.9052 34.4974 5.59273 16.0671 62643.5 1.02539e+06 846847 -486307 150281 -450012 
242 1 23.7772 34.2035 7.43634 0.182197 -655823 -815948 -19965.3 434814 206516 -172384 
1427 1 23.7672 35.9995 5.58448 0.397639 -517574 -20914.8 215048 -637444 29738.7 -258818 
1497 1 22.144 35.8946 7.53346 14.3301 -339101 363756 255313 501000 -31942.7 -375941 
245 1 25.6028 32.4556 7.27504 5.4328 118473 -210046 -184354 -521290 246636 323246 
1501 1 25.6352 36.0166 7.33786 0.288957 91531.5 129216 98404.6 -229092 -27902.7 -203810 
1431 1 27.3228 35.8861 5.3705 0.146884 431451 185453 365627 70675.7 -7212.38 70030.1 
184 1 25.4955 34.143 5.49488 0.34268 28089.7 -362366 402857 -167765 159009 71554 
246 1 27.5157 34.1269 7.20358 5.79034 297589 95263.4 351136 -337643 -25235.3 85661.6 
1505 1 29.2663 35.8689 7.14428 6.06846 153425 -604701 203331 -58785.7 157435 95953.6 
188 1 29.2077 34.1312 5.31624 5.56417 629796 365377 184804 119582 239464 -141099 
1435 1 30.9714 35.9471 5.18492 6.15651 -47992.8 247210 417944 -6960.38 503498 390933 
187 1 31.6975 33.3733 5.60777 6.13908 1.09407e+06 956780 1.38514e+06 -139023 142029 -54863.6 
249 1 29.9791 33.4509 7.58306 5.14559 119740 -16380.2 355070 -283622 -142468 538951 
250 1 31.7578 35.1704 7.49922 4.79539 166679 380646 1.14791e+06 -559269 -98077.9 47270 
2922 1 35.8633 34.4695 5.24077 5.962 -563500 -403008 -180013 -40356.6 106647 106219 
2991 1 35.9457 32.6758 7.10001 5.32801 -323252 177181 -172392 209308 269938 86731 
191 1 34.2422 32.6932 5.20735 5.29346 -333102 -548807 35691.8 -268633 -121427 54528.1 
192 1 33.5349 35.1852 5.51114 5.1969 371348 833997 1.07608e+06 233351 -1961.74 -97270.2 
253 1 33.5743 33.4593 7.58386 5.16109 -351530 101620 811551 -334564 -191445 -252474 
254 1 35.2869 35.1901 7.56715 5.73523 -56682.7 -292936 331793 -356579 98720.3 -52938.1 
195 1 24.4403 23.0268 9.67061 11.7869 669373 412489 919822 -374250 89873.4 -34145.3 
257 1 22.8838 23.3895 11.6104 27.902 435540 100874 348264 -279102 11235.9 -98438.1 
258 1 24.8157 24.8303 11.552 1.15587 -653266 62442.2 -209436 -693423 4057.13 241413 
199 1 26.9578 22.2244 9.09208 13.6034 619062 150252 374978 -293469 87700.1 90642.9 
200 1 26.2912 24.6335 9.5844 4.80863 -686532 -284724 -385209 -188852 100849 213780 
262 1 28.0957 24.4535 11.55 5.57086 1.13883e+06 613457 612187 -15554.2 405472 58170.2 
261 1 26.1973 22.6457 11.4527 10.9089 1.32329e+06 787913 1.17696e+06 84773.8 -162755 -94060.9 
265 1 28.6548 22.044 10.87 13.9264 1.10427e+06 379135 1.04234e+06 -122050 -170929 149565 
204 1 28.7535 23.9087 9.15757 5.74181 13490.9 -758728 395786 -419408 -65134.9 -301666 
203 1 30.4826 21.9922 9.01918 16.9725 1.05792e+06 351583 1.07446e+06 -186169 -412521 132837 
266 1 30.5179 23.7991 10.9172 5.99375 217217 22398.3 208001 272026 -97630 575341 
269 1 32.0875 21.9487 11.0301 15.8171 880573 99608.2 887780 354635 17327.5 49054.2 
208 1 32.3219 23.661 9.15311 0.734209 -262955 -325083 49893.3 374131 -417415 -128529 
2940 1 35.8752 23.7038 9.05965 0.199006 -560947 -412179 276145 68266.9 -133010 -326177 
207 1 34.0782 22.0241 9.12098 16.4927 803065 -107354 1.20622e+06 197370 -128327 -374745 
3009 1 35.8831 21.7614 11.0699 17.6043 1.30059e+06 921023 1.29739e+06 -107421 73700.9 -335124 
270 1 34.0188 23.6983 10.9381 0.285424 487396 320337 -183903 -114883 -287131 -28561.7 
196 1 22.8804 25.0711 9.87297 17.6603 -597543 -367363 300734 -1.02078e+06 36420.5 355937 
211 1 24.6388 26.5098 9.74848 0.374588 -992921 -650225 106352 -841817 171944 -77111.7 
212 1 22.7465 28.2543 9.75891 9.82002 553456 886826 615954 87308.5 -94686.9 -102296 
274 1 24.6557 28.3888 11.5681 0.402513 -564661 -344458 847975 -653858 152293 107798 
273 1 22.9557 26.7271 11.7319 13.9184 167558 484861 234874 -553828 67777.8 -128681 
215 1 28.172 26.2205 9.69987 5.78596 -479466 105927 255712 -225936 -65478.6 -257569 
216 1 26.4697 28.2634 9.58675 0.265273 931516 518998 389904 -279572 -151509 -238974 
277 1 26.54 26.5463 11.5403 0.663688 -192758 467576 508939 -718454 140839 103880 
278 1 28.2416 28.2645 11.4831 0.350642 -517358 -254521 1.06271e+06 -266665 -57742.3 -81536.7 
219 1 30.5729 25.5615 9.15451 5.78747 188231 100170 383729 -111203 -251698 150746 
220 1 29.9239 28.0392 9.50449 4.78118 667770 317234 910512 -206447 225404 -23811.2 
281 1 29.8422 26.379 11.5368 5.97344 252233 725797 394943 -76501.4 -103305 -217697 
282 1 31.7325 28.0484 11.4166 5.63705 160473 133342 931919 -4710.92 73317.5 96056.9 
285 1 32.355 25.6869 10.8827 5.67127 498369 285272 631696 -245757 -8056.1 -99748.3 
224 1 32.4458 27.3997 8.93436 5.87163 342917 158674 195085 -128924 -310093 -102988 
3027 1 35.9048 25.5032 10.9518 0.266128 -536805 2759.04 -162388 -38882.8 -292082 -119665 
2958 1 35.8518 27.3758 8.9408 0.522116 -33601.6 166990 375476 -195856 -492256 137794 
223 1 34.2083 25.5043 9.09972 0.353123 7829.61 296031 113174 199122 -458543 -119229 
286 1 34.063 27.4413 10.8746 6.44212 -423777 -345619 465328 -549362 -68747.2 -94252.2 
227 1 24.592 30.0606 9.62915 4.85551 72527.8 -71070.3 -337121 -83504.2 -505795 344019 
228 1 22.2068 30.7668 9.36051 14.09 -270366 426218 -57938.1 -351425 134810 -29624 
289 1 22.8282 29.9726 11.6161 9.45666 97087 -306829 773194 535191 -68003.8 108396 
290 1 24.6895 31.6963 11.666 6.19718 -732970 -121143 246648 -160734 -237267 -221708 
305 1 22.3476 32.2661 11.2189 13.6834 -210392 -441461 62091.3 72556.2 -21995.5 -86037.4 
231 1 28.3207 30.0116 9.46388 0.581663 526426 162845 808843 -173408 62001.5 -34739.3 
232 1 26.3915 31.7157 9.55566 4.72273 144183 121255 697044 -318926 -389698 205852 
293 1 26.4708 29.9521 11.4695 0.297626 -343136 -598666 755443 -314459 -97449.6 -173646 
294 1 28.1391 31.7146 11.4189 0.520317 188682 132947 695491 -115592 -68740.9 302315 
235 1 31.6464 29.8075 9.53941 5.29253 486191 105664 1.01334e+06 -152847 135650 58142.6 
236 1 30.0999 31.6951 9.35528 0.950006 -83197.6 -209461 845219 -207301 -30818.1 158822 
297 1 29.9669 29.9527 11.5369 0.555045 136729 536021 753200 -362174 -18302.7 -354723 
298 1 31.8422 31.7451 11.368 0.396129 -26998.2 -142344 207207 -325924 304122 174778 
3045 1 35.8423 29.1361 10.9238 6.27866 -308945 526407 120472 -153189 -254001 129027 
2976 1 35.8358 30.8731 8.91693 5.90974 -98267.9 -26540.2 206542 -449845 -14425.2 -195643 
239 1 34.2001 29.1854 9.01606 5.58929 -678477 -824241 37083.9 -433892 -356094 36916.6 
240 1 33.4367 31.5591 9.48897 5.13574 -30334.8 348576 282805 172786 254884 -117889 
302 1 35.3969 31.7252 11.287 5.43977 305076 710038 740352 37854.1 172768 -311921 
301 1 33.5487 29.8098 11.4418 6.08032 -21356.8 166287 484849 250041 394535 -123605 
243 1 23.9132 32.4804 9.24241 5.40158 -670984 -1.00965e+06 -348609 -414795 277846 -432396 
1499 1 23.9562 35.884 9.25938 0.331308 -403962 336666 -140353 -116770 -199288 -31471.1 
244 1 22.0788 34.1746 9.37939 17.6044 123591 590270 711704 128254 -3685.36 -275053 
306 1 23.9771 34.1779 11.0686 5.78459 -584287 -119445 -264401 -179275 10057.8 136078 
1569 1 22.2176 36.0001 11.1168 16.7237 160127 853391 1.31353e+06 -250579 4049.6 -107529 
1573 1 25.7184 35.9692 11.0282 6.3075 -271628 -274821 177075 -605532 -114493 -173112 
247 1 28.2254 33.418 9.5496 5.41586 602701 418955 709599 -47946.8 -198810 257815 
248 1 25.7466 34.1373 9.23191 5.60745 -86489.6 -246561 434323 -224073 42969.2 -94051.6 
309 1 26.3561 33.4798 11.5674 6.14853 -80950 136746 47975.6 -137993 306399 347069 
310 1 28.2431 35.2083 11.5642 5.5465 422220 85541.3 1.12383e+06 -3212.52 -168495 320099 
1503 1 27.5275 35.8515 9.11891 6.0142 741516 268009 612888 -193389 2188.33 41530.4 
251 1 31.7864 33.4754 9.55931 0.235631 -375909 -440512 542222 -89393 -247480 213394 
252 1 30.0814 35.2048 9.60843 6.17638 283010 72675.5 1.2078e+06 -138064 -39601.4 141144 
314 1 31.8636 35.291 11.5284 0.482238 479758 1621.07 -91598.3 246566 -185545 -131846 
313 1 29.9981 33.4675 11.4752 0.137199 465739 434180 762265 339157 27698.3 396979 
317 1 33.5249 33.4396 11.3475 0.214337 -1.02622e+06 -752238 312905 -808524 130241 241081 
318 1 35.2508 35.0811 11.2913 0.775257 296530 725908 599053 -516128 36719.9 -278994 
255 1 35.2748 33.3924 9.39022 5.37313 384821 5067.67 -227908 -178778 -35443.6 -40356.2 
256 1 33.5082 35.2065 9.52127 0.275149 -84678 -75191.7 324887 89237.7 -136196 325433 
321 1 23.0094 23.4363 15.4218 24.8741 377149 534577 692167 -391228 157019 -41647.8 
322 1 24.9228 24.8268 15.4327 1.52014 -1.34527e+06 -442076 476192 -722195 -239339 -15164.6 
260 1 23.1481 24.8983 13.4479 12.595 319977 -385444 -121284 -124698 153315 -306037 
259 1 24.4902 22.8468 13.479 20.0193 905327 567691 1.93217e+06 55328.9 193267 21972.2 
326 1 28.0588 24.4693 15.2496 1.07744 611855 292735 731758 -374483 166926 144920 
325 1 26.5124 22.6576 15.4847 16.1067 1.20384e+06 455899 1.48918e+06 -647910 402636 -86317.5 
263 1 27.9556 22.6559 13.3649 10.3233 1.2326e+06 402765 1.40111e+06 464690 87171.1 137181 
264 1 26.3524 24.4869 13.4251 0.759257 -140822 460372 476386 84039.2 -237653 17374.3 
330 1 31.7911 24.4654 15.3474 5.70654 -73992.8 -223034 572572 -401181 52591.5 -161782 
267 1 30.4136 22.1658 12.8091 12.7689 724896 -576815 468916 -15931.1 453309 -49007.3 
268 1 30.0243 24.4227 13.4644 5.85106 664658 -74361 1.14389e+06 149552 229966 -353006 
329 1 29.9438 22.6676 15.2951 10.4359 756177 389812 887587 92872.9 -37334.1 -65146.7 
272 1 32.3311 23.8295 12.7932 5.78092 -288098 -195284 525902 295495 247010 98712.1 
333 1 32.221 22.1394 14.6165 12.891 324127 -27890.3 818866 -71031.2 494092 128876 
3081 1 35.7966 22.0084 14.5426 15.1725 572834 -33881.9 825750 329992 376435 436623 
3012 1 35.8134 23.651 12.7328 0.433945 -53450.4 -613600 -320566 214334 193379 287897 
271 1 33.9413 21.9708 12.7693 16.8357 620817 13209.1 804625 76701.9 28420.1 114399 
334 1 34.1688 23.7827 14.5885 5.78128 -430082 -881097 246834 -65014.2 206848 349820 
276 1 22.9635 28.3098 13.6341 16.1971 355461 953146 1.07401e+06 -266174 43427.9 -412088 
275 1 24.8943 26.6536 13.4806 0.973415 -135798 526378 704216 -446431 -122941 -15636.8 
337 1 23.1019 26.3671 15.4301 13.0882 98240.3 1.20815e+06 1.17731e+06 361480 -94838.4 -468652 
338 1 24.7667 28.2615 15.5574 0.442859 -423546 -233367 253328 10695.5 955.85 -14740.6 
279 1 28.1545 26.2438 13.427 0.829429 549378 879683 670652 -175947 7418.84 145934 
280 1 26.6586 28.3515 13.5856 1.11325 95403 -259397 901458 -673210 -50518.4 29862.7 
342 1 28.3702 28.2356 15.4518 0.394613 -402931 591679 245435 -145279 -316975 197426 
341 1 26.5241 26.5576 15.4115 0.681167 -331970 -394457 492807 -509533 91419.3 145640 
283 1 31.7562 26.269 13.3121 5.87082 592489 605746 978521 -88875.1 -99607.7 -43973.2 
284 1 29.9763 28.0486 13.4282 0.476639 1.05818e+06 792890 863703 134208 17240 -30132.6 
346 1 31.8194 28.2205 15.3349 0.450165 3179.51 665901 623440 -144776 -109706 31089.6 
345 1 30.0135 26.301 15.2916 0.209221 628032 729805 220719 294456 112177 139828 
3030 1 35.8779 27.3805 12.73 5.86331 -782929 -978000 406455 -571317 -184290 -48545.9 
3099 1 35.9275 25.4464 14.6495 5.88579 -647434 109002 149511 -234174 -586964 124269 