ITEM: TIMESTEP
5800000
ITEM: NUMBER OF ATOMS
5780
ITEM: BOX BOUNDS pp pp pp
1.6622918527135462e+00 7.0637708147302007e+01
1.6622918527135462e+00 7.0637708147302007e+01
-1.4692576488562477e+00 7.3769257648871786e+01
ITEM: ATOMS id type x y z c_csym c_2[1] c_2[2] c_2[3] c_2[4] c_2[5] c_2[6] 
3 1 23.5425 22.2107 0.357993 15.9959 78598.9 369465 425223 -17055.5 -16858 80111.5 
4 1 21.7987 24.01 0.39461 15.5136 412551 -328145 175989 -90338.7 101024 323185 
65 1 21.9798 22.4659 2.22752 23.4661 -613739 -238613 256461 -845205 116127 72562.9 
2 1 23.661 23.986 -1.44652 0.323609 -234442 -842331 -148953 -353330 -70163.1 655366 
1 1 21.9592 22.317 -1.43267 29.2121 153033 316576 749893 -226875 -351697 11170.9 
7 1 27.057 21.8363 0.359192 18.9733 1.68179e+06 1.15028e+06 1.62656e+06 129865 120593 -6907.03 
8 1 25.4284 23.8856 0.494667 0.342556 343648 -424889 -201873 -321783 73294.3 329963 
69 1 25.4147 22.1338 2.20228 15.7169 363061 -470668 126592 144340 337014 70489.4 
70 1 27.3058 23.767 2.21455 0.223959 -539562 -110463 345963 111510 239327 364164 
11 1 30.7289 21.8079 0.58681 16.7286 1.02059e+06 334564 1.40189e+06 128853 47723.8 -228073 
12 1 29.0481 23.6194 0.459952 0.521455 372442 -213025 -197322 442145 410883 -243958 
74 1 30.8712 23.6884 2.28086 0.182246 -158762 -105178 43960.7 -87060.7 623444 -160549 
10 1 30.845 23.6971 -1.33587 0.380325 -80151.5 137859 583253 -510379 -109266 -393448 
16 1 32.522 23.6297 0.519843 0.519988 274884 477546 371733 314874 322551 -110398 
15 1 34.457 22.0208 0.483298 15.6524 1.07899e+06 237703 896362 12180.1 313090 35800.5 
13 1 32.5895 21.8323 -1.42835 19.3774 1.7765e+06 708307 1.91155e+06 12734.9 -68028.1 48819.6 
14 1 34.3391 23.7138 -1.35572 0.39805 663102 -18462.7 499642 155054 -102266 110305 
19 1 23.6149 25.6933 0.55402 0.384402 -329077 -126863 178932 -522906 -152381 -48719.2 
20 1 21.718 27.4321 0.59855 16.1845 700777 1.22532e+06 1.43349e+06 -83910.2 -142636 -128443 
18 1 23.6741 27.343 -1.36051 0.0864164 -183411 127162 59174.4 -393181 -489567 -44420.4 
17 1 21.8374 25.7389 -1.33416 15.8335 96796.4 282637 168848 -276024 -81352.2 141755 
23 1 27.3506 25.5117 0.399639 0.288085 -348844 437276 -269950 -249258 -218985 151523 
24 1 25.3791 27.3473 0.454006 0.452463 -167410 -609958 -196998 -133790 -158861 -21077.4 
85 1 25.5616 25.647 2.26027 0.317881 428774 -184431 77170.9 -158259 -122197 -126131 
86 1 27.3883 27.3836 2.28997 0.379915 -454740 -653197 -207810 -670406 192612 63709.9 
21 1 25.6056 25.6147 -1.30098 0.754434 48873 -362909 -203258 68997.1 -250833 124781 
22 1 27.3225 27.4606 -1.39637 0.706994 -442784 -531766 -81441.4 -269057 -42654.6 -158118 
27 1 30.8312 25.525 0.365711 0.320718 10973.4 -207330 50760.6 336157 437921 23233.6 
28 1 29.1482 27.3063 0.452109 0.161744 -564689 -732374 -247681 -43734.8 380937 121214 
89 1 29.141 25.5108 2.19775 0.248731 -63459.6 35950.8 -64229.3 -24879.6 29757.8 148353 
25 1 29.001 25.5234 -1.44751 0.22564 -253004 373735 -163387 -242617 -197756 -51576.1 
26 1 30.8412 27.2945 -1.38101 0.171082 -320165 -347217 -944.895 165084 64528.2 109261 
31 1 34.4333 25.4991 0.448937 0.212387 228220 205747 390216 221353 -74537.6 -189593 
32 1 32.6579 27.273 0.412131 0.17028 -302206 -445903 170130 190849 -74895.7 -275671 
29 1 32.6314 25.5683 -1.43294 0.341638 248445 402516 662816 249504 159920 -285507 
30 1 34.5475 27.2275 -1.42988 0.520218 -310679 -109154 63511.5 -240245 329465 38706 
33 1 21.7812 29.0707 -1.38446 16.9505 821565 1.77277e+06 1.71803e+06 2513.76 -114346 -141079 
35 1 23.6559 29.0497 0.444607 0.381991 35856.2 207389 346176 243240 110769 -235517 
36 1 21.9295 31.0771 0.388355 14.4196 60909.6 1.11815e+06 840148 -429640 290623 509391 
98 1 23.7291 30.8822 2.26545 0.430242 -201248 -124545 385536 -219226 151407 373510 
34 1 23.5907 30.8782 -1.3964 0.264864 -275.267 698776 829726 -211458 319561 6288.47 
39 1 27.2796 29.056 0.492259 0.11836 134048 6866.1 -258610 50806.4 -196795 -82257 
40 1 25.4869 30.8814 0.50142 0.224699 113615 154833 160765 -158938 84725.3 170075 
37 1 25.4964 29.1276 -1.39985 0.187663 -234838 -43079.5 206163 -169988 208921 184255 
43 1 30.9199 28.9796 0.470498 0.255502 -572553 -613048 -118278 -10843.8 -246556 -145104 
44 1 29.1624 30.7909 0.497231 0.658392 101621 -173753 560354 -575048 -211612 122999 
106 1 30.9273 30.8967 2.2163 0.39501 -162570 58242.8 -394580 38704.1 -159721 -101505 
41 1 29.1003 29.0634 -1.38952 0.120665 -729708 -800275 462210 -716650 231325 69546.7 
105 1 29.0502 29.0459 2.27598 0.227561 -342289 -679095 -402226 -581221 -95567.6 -225544 
47 1 34.4429 28.9969 0.40011 0.114928 -132738 198073 442690 -316557 101040 -106635 
48 1 32.5875 30.8675 0.410731 0.131617 -77951.1 32349.8 122331 -441603 451140 393774 
109 1 32.6834 29.0879 2.2395 0.342613 -373287 6912.63 145897 -311085 -143664 -106848 
2760 1 36.1466 30.7865 0.397077 0.123973 145963 108935 428565 -306117 -80924.6 -57438.8 
51 1 23.6752 32.7237 0.4576 0.309564 -68410.5 125642 781831 -375377 355944 62693.2 
52 1 21.9087 34.4883 0.52534 17.1274 849018 1.86813e+06 2.06624e+06 167970 -82890.3 -258614 
55 1 27.2621 32.588 0.354401 0.326589 279446 374216 728484 -378748 128578 92231.6 
56 1 25.5417 34.4551 0.473411 0.195366 339883 -151426 357560 56403.9 -23434.5 -59577.3 
53 1 25.3555 32.5962 -1.3539 0.72038 -25257.1 122288 484153 -94607 106556 31986.6 
60 1 29.0127 34.3829 0.367 0.107429 342213 149366 861297 230334 160183 194870 
59 1 30.7102 32.5843 0.356278 0.454272 -87739.9 -493885 477126 -235954 250861 548512 
2778 1 36.0422 34.349 0.37194 0.623569 -351259 -308399 -256934 25505.1 76676.9 -543607 
64 1 32.5814 34.3334 0.336123 0.294506 -556456 -269477 -96039 736466 -39142.8 108206 
63 1 34.2399 32.6455 0.414476 0.592088 -449963 -1.02011e+06 -36882 -179560 181590 29958.7 
126 1 34.3736 34.3876 2.15885 0.249096 -353635 -76680.2 -171166 -306080 198641 -348384 
62 1 34.3659 34.3244 -1.404 0.271791 -219973 217169 -356596 300781 -17352.3 13701.2 
66 1 23.7391 23.8837 2.34733 0.488104 -1.75925e+06 -1.30512e+06 121715 -610045 11069.2 104186 
67 1 23.7351 22.0282 4.02306 16.6931 315182 404622 243577 -107138 498522 343904 
68 1 21.9442 23.8583 4.26145 14.5662 266974 107121 482137 -304294 -120736 -310398 
130 1 23.8103 23.8546 5.98662 0.698324 -755371 -789074 -25314.4 117143 -30984.7 45389.2 
129 1 22.3004 21.9466 5.92569 29.6168 462750 345036 469999 -155253 279589 -110661 
71 1 27.1292 21.9167 4.06544 17.4565 1.1475e+06 506428 1.11543e+06 349911 178343 -33803.2 
72 1 25.5441 23.8131 4.04063 0.306211 205555 -178116 69603.4 118769 -122020 -65990.2 
133 1 25.424 22.1068 5.96702 14.2773 933954 -181893 927562 343584 -50888.3 -171826 
134 1 27.3554 23.6825 5.96418 0.235742 -377576 -572899 795735 126623 186960 -51147.2 
73 1 28.9929 22.013 2.36247 16.1308 828291 -173421 764411 192162 469223 13313.3 
75 1 30.9067 21.9877 4.19589 15.861 908818 279590 923928 -77091.8 -2841.28 -127921 
76 1 29.0675 23.7676 4.11692 0.230046 -87097.2 -513650 51143.3 149689 179892 -225543 
138 1 30.9083 23.7024 6.02888 0.2434 74464.5 -406846 226203 -56248.6 -111941 -175020 
137 1 29.0202 21.9547 5.93614 17.3627 999543 201669 1.34676e+06 415422 -131104 25049.9 
77 1 32.6246 21.8153 2.31868 18.5596 1.37137e+06 674204 1.3095e+06 100943 88535.2 94788.4 
78 1 34.4967 23.6616 2.40632 0.237374 -165317 -551737 345355 477053 370724 -145146 
80 1 32.7579 23.6708 4.19715 0.307651 -281942 -452295 599742 -209304 278707 107251 
79 1 34.4274 21.9233 4.22698 17.3888 890392 26315.3 948363 381051 110248 122275 
141 1 32.5839 21.7974 6.03374 19.3143 1.10077e+06 535431 1.18429e+06 75571.3 -8930.45 -54160.8 
82 1 23.6035 27.3282 2.37501 0.329527 -44227.4 -15282.3 -152642 -76601.4 212843 -444192 
81 1 21.7989 25.4627 2.37493 14.0444 458708 1.14326e+06 812437 148747 86095.5 53603.8 
83 1 23.6834 25.5972 4.25229 0.333551 238347 -358214 214064 -288800 -963.052 -71404.9 
84 1 21.8935 27.3989 4.18296 17.0583 396045 1.42759e+06 1.22454e+06 47659.5 245577 -146445 
146 1 23.8948 27.2586 6.01453 0.676026 -26918.3 -45459.2 141862 -147976 130929 -393783 
87 1 27.4189 25.5816 4.18308 0.301461 -385519 48588.2 434949 -77201.2 68214.1 169825 
88 1 25.5469 27.3131 4.12208 0.259474 -134866 -308106 65912.5 -536219 317657 30599.5 
149 1 25.7059 25.5489 6.01083 0.555475 -340290 -539392 251534 -27764.9 87946.3 -142867 
90 1 30.9656 27.271 2.35704 0.387316 170784 -53903.3 -136341 -207305 -12715.1 17266.3 
91 1 30.839 25.4349 4.16279 0.171404 -242675 -208884 541080 -561591 32666.6 190129 
92 1 29.1412 27.2554 4.14134 0.238885 -309512 -249159 524852 -236319 -14364.2 -93683.3 
93 1 32.71 25.4167 2.34237 0.26817 -174946 -390460 357484 -404510 49780.4 -176393 
94 1 34.3657 27.1485 2.39358 0.33777 181669 -324374 128397 -545760 -44273.4 -29313.9 
95 1 34.429 25.4381 4.21639 0.101795 -387059 -533857 297737 -615828 -164634 -89126.9 
96 1 32.5926 27.1135 4.25064 0.550598 -555310 -120049 17360 -277816 -171201 -6535.57 
2814 1 36.1134 27.162 4.29484 0.265891 -173166 -67116.9 502173 -421341 -2533.1 7653.02 
97 1 21.9304 29.2637 2.34529 15.4586 -43419.5 930968 841342 -312756 -208723 -240511 
99 1 23.7353 29.1741 4.05195 0.747431 -407626 70468.7 -50338.5 -166921 280672 -179199 
100 1 21.9254 30.9066 4.309 17.2568 284536 609901 915697 -126027 -171699 -9431.07 
102 1 27.1832 30.8217 2.36048 0.354563 62125.2 412602 296534 101876 -323721 -130672 
101 1 25.4349 29.0659 2.32649 0.21251 -393574 -230990 -248172 -95210.1 359589 156526 
103 1 27.2771 28.9558 4.16832 0.366586 -416421 -375488 32358.9 -697160 -35544.9 -262396 
104 1 25.4943 30.8991 4.22648 0.221983 -280474 48432.9 183208 -130852 385752 -201410 
166 1 27.3354 30.8093 6.05283 0.160242 35392.1 537294 478165 -68959.8 -45417.3 -127343 
107 1 30.9204 29.054 4.08325 0.322758 263515 192729 410137 -4709.24 128080 -414064 
108 1 29.0155 30.7044 4.08351 0.706551 257417 157431 37442.6 -92965.5 -245592 -43774.5 
169 1 29.1144 29.0618 5.9377 0.472486 208121 -289491 517774 69577.6 -80406.8 31025.3 
170 1 30.8305 30.8752 5.92368 0.338867 -148542 -243707 669496 96709.4 28000.9 350.463 
110 1 34.3783 30.855 2.32201 0.160366 -47330.3 55231.2 640368 -564465 245918 -172406 
111 1 34.2898 28.9366 4.20666 0.507446 585477 247789 419382 27078.8 207366 -197880 
112 1 32.6637 30.9222 4.13541 0.25621 -732495 -254195 -80034.3 240821 62960.8 74140.1 
174 1 34.37 30.7935 5.96684 0.496373 -360932 152897 -101733 -453596 68968.8 371822 
114 1 23.7662 34.4124 2.42788 0.22082 -53595.8 344199 1.01218e+06 221094 -67718.9 -108570 
113 1 21.9334 32.715 2.57482 15.6946 339710 811254 1.18234e+06 21573.8 -327622 -120029 
115 1 23.7237 32.5824 4.28664 0.219872 -786178 -455265 -367924 -217544 -643782 -140510 
116 1 21.8813 34.4749 4.2604 17.4195 451140 1.15987e+06 1.13925e+06 -312860 -89280.2 -489846 
117 1 25.5243 32.6968 2.35297 0.182323 74635.2 -118205 559478 246949 -168078 -698.774 
118 1 27.3025 34.4557 2.34488 0.116268 -589919 -713716 293814 334243 -379655 223025 
119 1 27.2629 32.7125 4.19932 0.291507 -242235 -243865 -141403 -132232 -213007 -342305 
120 1 25.4608 34.3622 4.34209 0.429518 -585143 -421632 -228037 -20327.1 -120082 135872 
182 1 27.3185 34.3461 5.99487 0.376818 -530744 -802577 -621974 -342330 -319810 -335874 
1357 1 25.6125 36.1385 2.33777 0.41257 -239611 -233641 119496 425586 -273944 -305853 
121 1 29.0764 32.7028 2.34253 0.414707 497995 556052 615754 251793 106104 -114332 
122 1 30.8904 34.4763 2.29314 0.298813 -21373.9 -53916.1 12257.5 -16300.1 52340.1 259573 
123 1 30.9189 32.5875 4.09124 0.353593 -275520 -80252 -247639 264250 187587 117148 
124 1 29.0352 34.4544 4.16918 0.123963 -508689 -685814 -540043 -511095 -235118 58878.6 
186 1 30.7061 34.3527 6.02481 0.456714 -242252 -68693.9 480202 -40582.9 -90348.6 57621.3 
185 1 29.1021 32.6019 5.9344 0.270868 -709290 -554269 646033 -99871.4 -158960 47754 
2850 1 36.0985 34.3521 4.06167 0.411549 -690165 -471043 325637 -631649 229687 -174697 
125 1 32.6452 32.6997 2.33028 0.341316 -581667 -736770 -355302 -288758 712739 10107.5 
127 1 34.4714 32.6154 4.17322 0.362141 -540028 -640197 24543.9 -539091 24572.3 -133140 
128 1 32.6177 34.4162 4.09988 0.0994172 172660 -326.883 170598 -170221 -459218 -481379 
190 1 34.3853 34.49 5.92298 0.454088 -320286 -320978 544745 150025 -93990 -202883 
131 1 23.6846 22.1034 7.99033 13.0166 206790 86349.2 1.21211e+06 300062 -468447 60875.1 
132 1 21.9773 23.696 7.67373 17.0188 -160196 -229193 676556 416241 270364 581043 
193 1 21.8447 22.5414 9.80979 24.5344 333151 500051 522828 -340095 -28794.1 -10121.3 
194 1 23.7887 23.9066 9.80084 0.78481 -1.52995e+06 -1.38282e+06 244037 -515617 -9569.66 453116 
135 1 27.1398 21.8446 7.90042 17.8534 946968 606724 867688 284469 80612.4 -121964 
136 1 25.5546 23.7563 7.87239 0.174188 274680 -420189 300341 -2938.11 -34054.4 -348956 
197 1 25.5375 21.8818 9.69816 17.7179 784349 766357 827352 -338483 437226 61802.3 
139 1 30.7271 21.7992 7.77546 17.3273 772581 222756 973197 184044 -124230 -59492.7 
140 1 29.0971 23.6269 7.91068 0.167163 222257 -399217 243000 406291 -184355 240181 
201 1 28.916 21.8661 9.66418 15.4041 670843 -343187 1.10265e+06 413173 30348.3 179462 
202 1 30.8074 23.4922 9.72404 0.575495 -181640 -341960 669430 147762 -106633 65013.9 
2868 1 36.1466 23.5958 8.09609 0.36665 172422 -145793 363162 178463 -449058 -449818 
142 1 34.4233 23.5952 6.17866 0.204693 68643.8 -39467.9 672040 382573 -49187.3 -27857.9 
143 1 34.412 21.8043 7.97126 16.8935 1.43461e+06 244601 1.41625e+06 -65440.5 27415.3 18801.1 
144 1 32.5729 23.5485 7.92759 0.155018 235355 163036 269005 82352.2 126335 182714 
205 1 32.4265 21.7593 9.70716 17.0496 1.1939e+06 197486 1.70302e+06 547450 -6713.09 299697 
145 1 21.8496 25.5643 6.06354 11.9712 594811 969016 752450 74307.1 -10894.9 -125763 
147 1 23.7208 25.5046 7.82208 0.426462 -406335 -521429 222041 315795 -9459.11 -171199 
148 1 22.1023 27.2476 7.9489 15.813 -395617 2636.37 944349 -52661.4 -120842 -320931 
210 1 23.8423 27.1543 9.79762 0.338904 10750.6 295227 14844.5 112414 174257 381581 
209 1 21.9944 25.3676 9.76721 13.3036 -324975 956565 1.30944e+06 752278 27719.3 -37877.9 
150 1 27.3376 27.3039 6.1767 0.564911 -377133 -645890 70814.1 -299685 -9921.12 -67758.1 
151 1 27.4047 25.4569 7.92706 0.178041 -403354 52584 107903 -32721.4 -10906.4 104303 
152 1 25.561 27.1848 7.93722 0.139243 -362149 -2258.6 -58085.7 -208777 229474 32729.3 
213 1 25.6215 25.3592 9.78998 0.597224 -661285 -723417 313849 -539901 -51266.9 279163 
154 1 30.8601 27.2872 6.15741 0.328153 184841 314224 550137 163089 289173 42865 
153 1 29.0787 25.428 6.05951 0.15441 -207542 106570 -72355.5 -99761.7 -68852.4 -101489 
155 1 30.8591 25.437 7.89397 0.240172 71602.4 33718 412114 -220014 -125716 34274.5 
156 1 29.1035 27.2713 7.95222 0.18899 -214409 281454 501365 -70970.2 -55661.7 -218310 
2886 1 36.1187 27.2285 7.92308 0.337081 413779 114327 213836 -267443 -104442 -201990 
157 1 32.6503 25.4346 6.11697 0.131921 -84947.3 -111132 361756 -514780 130183 220403 
158 1 34.3321 27.2214 6.11112 0.2782 176189 300054 283857 -52824 -180908 -4969.97 
159 1 34.3295 25.4433 8.06007 0.250719 264867 486120 695355 93503.2 -65283.1 44615.8 
160 1 32.5609 27.1991 8.12507 0.635658 -72885.4 323794 675644 284780 -452076 6957.86 
162 1 23.7976 30.8176 6.05761 0.273816 -446493 -197655 8088.94 -382670 -136944 55598.2 
161 1 22.0486 29.0568 6.08121 16.4175 443543 818127 774796 -205210 -107064 -324075 
163 1 23.7447 28.956 7.99789 0.248985 -421775 -147839 314832 -496754 66160.2 -177953 
164 1 21.8555 30.6721 7.91949 17.4549 719147 1.08736e+06 1.30983e+06 -2682.37 45494.5 -303662 
226 1 23.7591 30.6776 9.81088 0.248791 -638095 -700226 394827 -139645 -344755 -18468.3 
165 1 25.553 29.0074 6.10533 0.173844 -118092 -560548 350230 -214150 154841 -221406 
167 1 27.2738 28.9689 8.0249 0.310838 -130316 -429875 305983 68820.1 -51301.9 -421423 
168 1 25.5511 30.7456 7.87092 0.324007 103208 8545.14 8802.14 130193 -167086 -383783 
230 1 27.2692 30.8431 9.76872 0.250373 -59882.3 -124221 31012.8 -318563 43691 -251836 
171 1 30.8972 29.0303 8.0475 0.388841 -31579.4 -36832.7 686615 -47112.1 -3666.44 -331716 
172 1 29.042 30.7412 7.87564 0.339581 194971 625188 641108 -91877.2 -297443 -121135 
234 1 30.8147 30.9429 9.74132 0.369838 22737.5 -167758 131005 260384 -165193 -5749.98 
2973 1 36.092 28.9812 9.79948 0.455939 -15711.9 -54441.7 275575 -55014.1 -50483.9 -43608.5 
173 1 32.607 29.0991 6.06717 0.253091 -184437 266090 549949 -252679 52828.6 -268972 
175 1 34.4212 29.1601 7.86646 0.647182 386887 358634 673957 242868 -359691 79769.9 
176 1 32.5997 30.8154 7.92912 0.193543 -246096 -336613 560041 61796.7 141118 -97529.7 
1427 1 23.6663 36.0102 7.91474 0.439356 -686720 -219341 198764 -29047.5 -357295 243517 
178 1 23.6716 34.2569 6.06723 0.424638 -728105 -280726 -269614 128572 40495.5 -324350 
177 1 21.8915 32.5816 6.18268 17.741 201411 1.02325e+06 1.06397e+06 -297254 -232208 -291744 
180 1 21.8953 34.3883 7.98277 17.2653 19618 640750 820574 -413869 -160854 -50730.3 
179 1 23.6288 32.4893 7.95114 0.258599 -711047 196254 -508343 -208721 -223653 -133808 
241 1 22.0236 32.4759 9.81172 15.3479 -58261.5 1.17386e+06 714549 -39106 -17738.6 7004.21 
242 1 23.6981 34.3155 9.73904 0.438702 -573997 -251651 420351 -85474.3 199082 201428 
1431 1 27.1279 36.0166 7.92031 0.433463 -358032 506243 -391699 -120282 -163122 195338 
1501 1 25.4239 36.09 9.72973 0.369449 -149501 37324.2 707913 -70410.9 -125485 -103074 
181 1 25.4421 32.6253 6.07109 0.194192 -634744 -993177 -583845 -34426.2 -242742 -79033.8 
183 1 27.3032 32.6331 7.88485 0.28738 154569 -51568.5 332565 -110694 -283033 -95493.9 
184 1 25.3892 34.2586 7.9126 0.214516 -547409 -741709 -399382 22383.9 -44360.4 -328864 
245 1 25.3415 32.4727 9.72082 0.51176 -129449 -452253 332213 -60116 -482947 341640 
246 1 27.1496 34.3096 9.79522 0.194904 59197.7 -253554 278995 272359 -213726 67863.6 
1433 1 28.9701 36.0902 6.15481 0.49311 -48541.2 -641486 92102.3 31786.8 1595.75 84357.7 
188 1 29.0323 34.3674 7.88994 0.185066 -248825 -491736 -321633 -27926.5 -51178.9 356265 
187 1 30.8074 32.5816 7.90392 0.120396 46849.5 -219893 139323 5846.89 71264.8 365449 
1505 1 28.8739 36.1253 9.71094 0.493932 115121 271248 341408 26647.7 172585 -91060.2 
249 1 28.9902 32.6476 9.77373 0.149121 -277002 -249000 121045 94562.1 -219804 154137 
250 1 30.7883 34.4224 9.75505 0.133123 232956 -79643.9 160095 -122295 42648.9 366981 
2922 1 36.0928 34.4505 7.91083 0.165492 39605.4 367052 -2439.92 113119 418124 -250574 
2919 1 36.0898 32.6794 6.113 0.348313 96292.4 -354605 60323.5 -116426 -405666 109594 
189 1 32.5848 32.6326 6.06182 0.174829 303964 249751 290329 -100703 -130633 -321475 
191 1 34.2742 32.657 7.97774 0.341259 -310848 441403 487141 150169 218944 173386 
192 1 32.5566 34.3545 7.89977 0.246515 131206 -453007 554782 73651.2 127017 -52864.5 
253 1 32.6243 32.6801 9.78287 0.138895 -107621 188646 155124 -152396 624673 303271 
195 1 23.7655 22.2136 11.5066 18.0421 373525 -62634.9 976238 -264280 139520 395936 
196 1 21.9185 23.8248 11.858 18.1847 350403 -195911 53259.9 286195 -160617 -708658 
257 1 22.1733 22.0352 13.4924 29.2864 880658 501640 1.36579e+06 -137802 21852.3 253224 
198 1 27.328 23.5849 9.83972 0.318327 -1.07666e+06 -1.13179e+06 48257 449142 -113204 -134524 
199 1 27.2924 21.8226 11.6945 17.6796 938807 215382 1.0333e+06 -269876 -189789 172269 
200 1 25.6297 23.7368 11.6622 0.34687 -244595 -340955 32477.7 -645585 -176632 406045 
262 1 27.3029 23.7973 13.4906 0.624096 -152630 -250511 246523 155195 -193338 249888 
261 1 25.4286 22.0098 13.5329 16.4789 1.69525e+06 448481 1.43607e+06 211504 -260462 128352 
203 1 30.7298 21.8646 11.7262 17.2816 908993 150485 745165 29970.5 -187153 -151476 
204 1 28.9559 23.6045 11.6496 0.244015 -674080 -705863 33278.4 46725.6 -303154 463257 
265 1 28.9337 21.8758 13.5309 17.5015 1.19309e+06 368372 924424 29572.7 -85686.6 32284.3 
266 1 30.7776 23.6423 13.4983 0.295109 -384641 -598163 66649 552697 354156 -65647.9 
3009 1 36.0088 21.8523 13.4903 16.6562 1.19111e+06 342028 1.2587e+06 299930 111422 260351 
2937 1 36.0289 21.8043 10.0375 15.581 978811 379832 1.38207e+06 -11000.7 -222223 -176155 
206 1 34.2722 23.6068 9.89586 0.369712 774911 -190448 364357 437627 107029 -254256 
207 1 34.1648 21.9144 11.7833 15.4394 659092 277930 772132 404270 415073 88922.8 
208 1 32.4794 23.6682 11.7515 0.348627 -415184 -769047 -79014.2 439377 532718 553448 
269 1 32.4242 21.9211 13.4736 16.0295 181480 -206307 101937 609224 148642 245286 
211 1 23.7809 25.5957 11.7174 0.608193 -107745 -274257 -137852 244257 -235991 -55889.1 
212 1 21.9765 27.1435 11.5578 15.426 -82250.9 646760 944770 440603 -8674.54 347966 
273 1 21.7342 25.4899 13.5109 12.3161 689267 757539 974465 -222538 49138 -545390 
214 1 27.3001 27.1816 9.89688 0.220749 442491 -354338 415428 16805.1 -5329.96 402094 
215 1 27.3768 25.476 11.6298 0.478658 -441376 -826737 -291430 -172641 411548 568199 
216 1 25.5801 27.2916 11.8619 0.76503 5098.04 -165965 291921 31073.2 -160845 318141 
277 1 25.5783 25.5306 13.5633 0.24903 -183874 -662209 256148 132794 -149432 346834 
218 1 30.7577 27.2044 9.96552 0.325007 16339.5 -60324.4 316321 410035 76479.1 214928 
217 1 29.0272 25.3758 9.85333 0.205813 -318225 212560 -92860.3 -170878 9724.4 170548 
219 1 30.7154 25.3897 11.7167 0.38731 -116712 -254457 256586 263019 -185597 526730 
220 1 29.0958 27.2558 11.867 0.43905 -371496 -221494 359906 103775 578826 -126503 
3027 1 36.1301 25.5948 13.5687 0.600264 121339 218213 540984 531925 -22843.6 -307208 
222 1 34.2724 27.3396 9.87016 0.648216 115241 474098 320107 -263464 -379191 -118706 
221 1 32.4873 25.361 9.88243 0.368623 -28531.8 44493.8 66267.5 242591 -133079 289720 
223 1 34.3816 25.3936 11.5238 1.0339 242357 -335980 267256 205154 -108103 -157072 
224 1 32.5719 27.1354 11.7517 0.371269 116277 343273 -212180 26219.5 -138145 236433 
286 1 34.3407 27.1596 13.502 0.385283 -179874 45680.1 829036 255129 -328475 -69256.3 
285 1 32.5998 25.4477 13.5285 0.26435 -501478 -1.20847e+06 126931 503291 -15205.8 242707 
225 1 22.0031 28.8957 9.85264 17.5695 215860 717328 654715 -71236.4 131163 96132.5 
227 1 23.7602 28.9653 11.7432 0.209383 -257072 602400 646521 -65370.7 -152274 92236.8 
228 1 21.819 30.6864 11.6941 19.5229 762285 1.11518e+06 1.51982e+06 -195817 -51658.7 64378.3 
229 1 25.5631 29.0376 9.90463 0.293557 -173311 -400779 68703 190183 158785 -456526 
231 1 27.4091 29.0747 11.6947 0.520648 -142955 -156046 281555 -19807.4 -67585.2 -14417.5 
232 1 25.4856 30.7432 11.5801 0.502211 -262662 -666323 -115315 -587827 -351978 -317243 
294 1 27.1724 30.8239 13.5496 0.291861 390478 63018.2 642597 90588.6 -24572.6 26975.2 
233 1 29.1045 28.9873 9.89411 0.261978 -93782.3 437711 200049 265918 58212.8 -58327.3 
235 1 30.7885 29.1005 11.7382 0.155373 -39972.2 651582 103987 -350304 99774.7 -403433 
236 1 28.9757 30.9583 11.7038 0.503101 157767 -27146 517055 -7338.52 -24361.8 -79697.4 
238 1 34.4363 30.8699 9.81709 0.328191 451118 79371.1 758473 -137991 -179661 155038 
301 1 32.5944 29.0805 13.5134 0.293267 -491055 301671 -36419.4 -3464.26 -190410 -66670.6 
237 1 32.5311 29.139 9.9566 0.552383 163977 441505 320978 370299 -292488 -150232 
239 1 34.3454 29.1009 11.712 0.275672 143355 429612 249775 -324328 70557.7 -59769.8 
240 1 32.5137 30.9841 11.7003 0.470838 240113 -107020 149455 202794 29161.1 -192926 
1497 1 21.8803 36.0286 9.92606 15.73 586860 1.17575e+06 1.52736e+06 122895 -98447.3 -91403.5 
1499 1 23.6226 36.1305 11.8415 0.686458 -432079 -239145 306547 -213828 228657 411398 
244 1 22.0276 34.2766 11.7544 15.0213 -333758 91736.1 949584 182644 -411080 -122697 
243 1 23.5515 32.4732 11.7234 0.560183 -108835 224058 822365 504768 -399304 -6594.38 
306 1 23.6986 34.4012 13.5421 0.307346 -481277 513637 -690201 424755 -1211.29 500115 
1503 1 27.211 36.1377 11.6307 0.177716 11220.5 -206713 273795 92418.8 178317 217549 
247 1 27.1064 32.5144 11.6413 0.415763 -216194 -681814 445468 3130.34 1284.58 -83124.2 
248 1 25.4064 34.3535 11.7891 0.400814 66788.2 643698 626091 385080 202937 22461.5 
310 1 27.2217 34.3501 13.4812 0.416455 -74828.6 98488.9 217429 176980 -140449 391171 
1507 1 30.7122 36.1183 11.6905 0.252234 357049 218654 731732 244598 119907 225089 
251 1 30.8333 32.7327 11.5779 0.405198 -177668 -180146 269736 534667 -50320.7 -87113.7 
252 1 28.9266 34.3199 11.6611 0.210912 -334484 210356 273793 264427 171967 -82768.8 
313 1 29.0017 32.6166 13.573 0.18509 1426.79 -110409 135995 34814.1 77854.5 -81446.5 
314 1 30.7532 34.3748 13.5246 0.255 229446 -17863.9 426865 323403 -31023.3 69053.9 
317 1 32.5797 32.7133 13.5271 0.305235 -18368.7 -348562 293315 173094 10899 -279865 
2991 1 36.0763 32.6685 9.8483 0.266476 -208685 -149697 632116 -194341 96202.9 -179294 
254 1 34.374 34.4755 9.96723 0.61084 -444745 -34583.1 390069 116448 163035 13359.9 
255 1 34.4996 32.6321 11.8067 0.692799 279397 444696 214601 -290698 148769 274218 
256 1 32.6566 34.5363 11.7136 0.371333 15571.7 589595 411111 -149638 397819 249616 
258 1 23.7757 23.8498 13.6069 0.526393 -282703 -78205.6 487070 -406700 -432904 -204453 
259 1 23.6318 21.9922 15.6222 15.699 749826 637740 1.48772e+06 159068 249857 -124935 
260 1 21.9602 23.7774 15.4665 15.5841 103854 131984 1.24839e+06 -331408 175933 -497561 
263 1 27.112 22.0711 15.4451 14.2696 658940 10270.3 1.32305e+06 -96755.1 92118.1 -156863 
264 1 25.4178 23.8023 15.4598 0.292332 244712 11810.4 808271 499996 -414190 -48493.1 
330 1 30.8265 23.6228 17.3057 0.108167 210208 -598952 14542.2 379800 -285348 63402.8 
267 1 30.8182 21.8306 15.4721 17.7033 931889 511868 1.13799e+06 183999 33268.9 -165881 
268 1 29.0283 23.5375 15.4845 0.645461 84920.1 -228158 613105 -262233 -50354 196327 
270 1 34.3871 23.7283 13.6005 0.460893 189251 141044 472634 440623 331380 -115479 
271 1 34.2499 21.8699 15.3942 17.0807 892718 407457 1.45943e+06 391003 156643 153050 
272 1 32.618 23.6676 15.3467 0.332777 -211912 -574955 675903 567706 279254 89362.7 
3081 1 36.0157 21.838 17.2803 17.3149 1.47705e+06 404997 1.50671e+06 184665 44959.4 102364 
333 1 32.5453 21.8801 17.26 17.0386 902028 136964 628050 295586 -159069 -299126 
274 1 23.6284 27.091 13.6343 0.877431 -16598.3 208466 162049 254676 -77009.5 -91023.5 
276 1 21.6709 27.2561 15.3976 19.0365 1.15877e+06 1.67803e+06 1.49718e+06 39107.1 138300 468696 
275 1 23.6147 25.4905 15.5046 0.329972 -578430 -400579 148544 -588723 462108 130476 
337 1 21.8801 25.4332 17.1961 15.7083 60278.9 662975 431425 287209 473181 -522960 
278 1 27.3697 27.3153 13.594 0.351045 -272599 332012 137780 -205742 -7099.89 18763 
280 1 25.4033 27.2036 15.4853 0.348481 1130.87 246438 352788 40704.7 -237184 240026 
279 1 27.302 25.5224 15.5204 0.370312 -66381 201585 -215127 -41071.4 367226 -413092 
342 1 27.2892 27.2638 17.1825 0.669497 358755 -137035 286467 -248565 -19330.1 -367601 
282 1 30.9491 27.1107 13.7134 1.04287 -725212 66606.9 -305179 310136 -210385 24263.4 
281 1 29.0693 25.4468 13.8438 1.59004 -501153 -271468 360966 -199185 116092 -73258.3 
283 1 30.8801 25.3371 15.5111 0.587191 -749439 -268417 -558319 106781 -286781 433664 
284 1 29.1415 27.3036 15.4706 0.217024 -58025.9 39892.7 -259507 -160985 51826.6 -274059 
345 1 29.1565 25.4991 17.3004 0.304583 7444.24 82930.8 270815 11275.6 51621.5 -91678.4 
346 1 30.8272 27.3493 17.2996 0.415528 -497785 62652.7 79782.2 -371871 191749 -148299 
349 1 32.599 25.547 17.271 0.356121 -615383 -5011.43 -874598 -16995.5 86379 201240 
350 1 34.4224 27.2543 17.272 0.172275 -513017 -904534 -114723 -406332 177700 63245.9 
288 1 32.5317 27.194 15.4742 0.422591 -783749 -693482 -685510 -237678 -509458 119275 
287 1 34.3485 25.4766 15.519 0.372938 224581 179416 151405 54803.8 245207 -210503 
290 1 23.6385 30.7662 13.6498 0.193994 7358.16 -407960 353339 -35065.1 92556.3 32063.5 
289 1 21.9265 28.9236 13.6021 15.3738 396593 1.07628e+06 1.0554e+06 -9421.32 -71633.2 246119 
291 1 23.6839 29.0523 15.4554 0.551025 -283486 -218471 479556 390540 -124908 271233 
292 1 21.9098 30.6488 15.4969 14.256 -300942 521092 836034 245006 65782.8 -219884 
293 1 25.4192 29.0385 13.6382 0.318082 240577 452478 367000 124805 -194962 -185242 
295 1 27.2422 29.0607 15.4323 0.164319 528859 292839 169211 17526 -388503 29259.5 
296 1 25.3442 30.8013 15.6537 1.10457 33522.9 124159 161367 -232835 -524896 84834.8 
358 1 27.1564 30.8717 17.2603 0.401577 -310742 253995 387358 -52687 -155767 -235685 
297 1 29.1256 29.1145 13.5984 0.252561 108242 350721 184032 -548823 -20338.9 -128713 
362 1 30.7969 30.8373 17.3382 0.126425 -148002 -103415 -2752.34 -304980 -376811 103968 
298 1 30.8709 30.8758 13.5798 0.217376 8093.88 -344784 155037 -139821 250442 -165327 
299 1 30.9178 29.1448 15.3969 0.495136 60115.4 5617.88 85902.3 -69672.2 -138233 160627 
300 1 29.0231 30.8963 15.4992 0.249933 -176586 -621205 -101520 -358635 64887.5 166733 
361 1 28.9982 29.1768 17.2367 0.505172 32654.8 -13753.6 353265 -189301 -181518 192207 
304 1 32.6841 30.8974 15.4352 0.456595 -665995 -305051 363347 -489885 320185 -57643.8 
303 1 34.2282 28.963 15.3371 1.03877 307374 292566 241890 39909 -33512.3 237430 
302 1 34.294 30.8856 13.6196 0.397451 184529 -303580 -220518 -391041 348013 -134544 
365 1 32.6426 28.9961 17.2578 0.195943 -455895 -194096 -20306.1 -356991 135302 -220426 
307 1 23.4895 32.5363 15.3645 0.539669 -545512 -284864 474207 107748 174641 -405105 
305 1 21.7248 32.4273 13.6001 17.5932 619792 1.55416e+06 1.30392e+06 327764 -213821 -67442.1 
308 1 21.9378 34.3978 15.2963 15.4185 -111908 816525 871407 291497 -107364 85975.6 
370 1 23.5086 34.381 17.1959 0.502674 -287644 253256 73023.2 283856 299864 247431 
369 1 21.7239 32.5386 17.1642 17.201 489020 1.44282e+06 1.35272e+06 17756.8 92885 -287261 
1645 1 25.443 36.1354 17.33 0.214947 96881.8 360137 247340 405028 87976.1 195812 
309 1 25.3937 32.518 13.6471 0.424539 -101847 85659.5 588195 180527 -71000.8 -99160.5 
311 1 27.2437 32.6746 15.3487 0.55839 -256011 -114925 31219.9 128339 -143574 120530 
312 1 25.3409 34.2906 15.4286 0.596965 383175 82709.2 137465 337542 -133723 42053 
374 1 27.2393 34.3547 17.3082 0.168788 -250999 -139961 136369 213168 344773 263069 
373 1 25.3884 32.7117 17.3114 0.57665 586145 258994 573783 141916 -7485.14 57040.9 