ITEM: TIMESTEP
12400000
ITEM: NUMBER OF ATOMS
5780
ITEM: BOX BOUNDS pp pp pp
2.7807128333421089e+00 6.9519287166673422e+01
2.7807128333421089e+00 6.9519287166673422e+01
-4.0332474496701574e+00 7.6333247449685700e+01
ITEM: ATOMS id type x y z c_csym c_2[1] c_2[2] c_2[3] c_2[4] c_2[5] c_2[6] 
4 1 21.9125 23.8995 -2.07063 14.7338 111370 -128253 189692 -565131 -214174 -193734 
3 1 23.7531 22.0626 -2.17044 16.4425 440163 158081 529065 -576847 105577 18981.2 
66 1 23.5369 23.966 -0.18674 0.693045 -1.07713e+06 -1.17258e+06 584195 -529098 -171371 -56611.8 
65 1 22.0803 22.1693 -0.213449 43.203 720941 271412 1.57655e+06 -560816 -23267.6 207377 
1 1 21.9026 22.2895 -3.834 25.532 379616 129082 1.0285e+06 -513739 -63461 -318601 
8 1 25.2183 23.9267 -2.08984 0.805833 -373012 -555240 161155 -425043 -278694 -477956 
7 1 26.7485 21.7943 -2.1135 16.4939 2.00522e+06 925231 1.84615e+06 -123060 -86721.1 -34832.5 
70 1 26.9712 23.7264 -0.326324 0.331632 63495.3 168434 120611 311036 -89132.4 -36895.4 
12 1 28.4759 23.7051 -2.33013 1.00961 332147 360974 746315 337784 -257898 -172104 
73 1 28.7433 21.8537 -0.235274 17.5505 1.55579e+06 838615 1.95792e+06 -51455.6 80290 -142332 
11 1 30.4126 21.9655 -2.35039 14.9215 1.85012e+06 601712 1.54708e+06 -91005.1 53274.2 164177 
74 1 30.4487 23.716 -0.437778 0.14483 -122883 -394435 969357 620509 145979 -678.439 
77 1 32.1675 22.0653 -0.328242 14.788 449879 -236352 338105 491147 -18940.8 -176921 
16 1 32.2299 23.7243 -2.26909 0.362915 -587546 -853707 91317.6 311893 520264 135697 
15 1 33.7362 21.8607 -2.24331 15.4241 960174 220594 933405 484914 46120.1 216385 
2793 1 35.5732 21.9516 -0.526052 15.4023 1.08881e+06 -202872 913793 339908 -39015.7 577990 
78 1 34.0414 23.8008 -0.371757 0.634565 -262640 -692534 -314351 421550 -20373.7 -2298.6 
2724 1 35.7077 23.5868 -2.24474 0.594552 272967 -495344 -330198 558021 -252849 198870 
20 1 21.644 27.4586 -2.14048 18.3728 132866 832838 1.01024e+06 -396366 11331.1 36325.5 
81 1 21.75 25.7511 -0.284341 16.8364 -161555 582581 458299 -258404 -276572 247611 
19 1 23.5203 25.6586 -2.20496 0.266854 -681900 -819682 50656.4 -375270 -87142 -43422.3 
82 1 23.5564 27.3674 -0.399456 0.36148 -587070 -1.12382e+06 -274850 -597066 -335416 28378.4 
17 1 21.7003 25.4988 -3.96199 15.7941 -44341.3 1.13845e+06 1.21541e+06 -75098.5 -181008 270545 
24 1 25.3345 27.3327 -2.34195 0.484682 -244781 -394268 425888 -32031.7 58136.5 -85581 
85 1 25.374 25.5783 -0.317703 0.447695 -345188 -857086 -293333 -159864 44129.9 -421655 
23 1 27.0122 25.6353 -2.24919 0.318884 -948009 -943297 499921 294503 -68630.9 -46961.4 
86 1 27.0804 27.3854 -0.387632 0.211001 -586128 -539686 -436285 -147014 155782 -196181 
28 1 28.7215 27.3508 -2.32325 0.142336 -21923.2 237106 351328 -492536 -291038 314236 
89 1 28.8008 25.5287 -0.477789 0.256391 -413290 -177417 -439335 219089 422512 -100330 
27 1 30.405 25.4005 -2.41607 0.492228 138960 515065 185284 182099 184297 -209168 
90 1 30.4747 27.3856 -0.519827 0.261677 -746840 249694 -203804 89654.1 379136 129733 
32 1 32.2218 27.2442 -2.38086 0.181713 642561 382129 192815 96044.2 66289.8 -97128 
93 1 32.1889 25.5263 -0.547031 0.299819 457264 -277580 317339 3338.31 -144048 -302712 
2811 1 35.9315 25.5341 -0.628841 0.72917 -579787 -775428 -31606.7 3378.69 -92.0257 275664 
31 1 34.0647 25.3744 -2.38484 0.449265 -346905 -256724 -105450 61808.1 2727.34 -299355 
94 1 34.0701 27.2675 -0.596958 0.231253 285209 188043 348029 155243 159854 407788 
2742 1 35.9625 27.151 -2.39278 0.364328 359457 -323527 -140552 203208 -165337 362866 
36 1 21.6946 31.0629 -2.2437 17.4257 -39611.7 943364 969672 -399263 -105160 -47800.9 
97 1 21.8487 29.1767 -0.343751 14.2792 -362201 505734 509548 -294993 172048 -109178 
35 1 23.4129 29.132 -2.24433 0.16562 -302429 -32763.2 -195828 -496637 216283 -204137 
98 1 23.4623 30.9204 -0.505833 0.737146 -827258 -431777 594502 -275839 250702 -216036 
40 1 25.1465 30.957 -2.3624 0.213601 -493042 24866.4 13438.3 88966.3 254101 -65618.9 
101 1 25.2252 29.0761 -0.360359 0.311752 -124580 -134121 359604 -323300 -29351.6 348135 
39 1 26.9234 29.2359 -2.3095 0.478038 218268 -32772.3 484095 -46971.9 -81765.7 154789 
102 1 26.9937 30.9396 -0.405655 0.218351 34652.6 -743103 -11786.9 203148 -227050 -186906 
44 1 28.7889 30.962 -2.48257 0.51895 -620247 -759533 -72080.3 -30928.2 -191127 -153160 
105 1 28.8011 29.2142 -0.405211 0.457011 -450194 -496894 -311614 239231 516642 -238037 
43 1 30.5163 29.1415 -2.37231 0.214177 -212530 -20950.7 -343823 148900 -453184 -36414 
106 1 30.6737 30.9427 -0.702326 0.778806 -327581 -611264 32614.4 44751.4 236587 -118335 
109 1 32.347 29.0874 -0.667156 0.471339 -399224 -637044 139963 -63712.9 -27795.5 -20191.4 
48 1 32.4737 30.9026 -2.37601 0.603837 -370812 -108147 -269020 -245740 -136833 221672 
47 1 34.1903 29.0331 -2.38625 0.319721 171911 -43336.5 -57781.5 -75115.7 343307 -403248 
110 1 34.1136 30.7883 -0.613633 0.263279 -413844 245578 -475616 -185593 -38259.2 -349609 
2829 1 35.9735 29.0098 -0.552918 0.189052 236864 61202.3 524691 -314890 -70215.3 -1825.9 
2760 1 35.8953 30.8161 -2.42594 0.186131 68989.6 174034 642064 -48874.6 -143081 17238.9 
113 1 21.919 32.7754 -0.284484 14.982 -66865.8 875143 1.14966e+06 -34183.8 -51216.8 -261153 
51 1 23.3714 32.7674 -2.36754 0.623066 -614986 -29601.1 198890 -373145 213260 329750 
52 1 21.6411 34.6403 -2.20966 19.8997 727654 1.26943e+06 1.40386e+06 -91851.4 194765 -105661 
114 1 23.5999 34.5477 -0.2867 0.27227 -214694 -540232 831414 -15947.8 163180 219722 
56 1 25.3249 34.4218 -2.27714 0.297089 -40804 49811.7 16687 268393 -317036 18318.8 
117 1 25.2343 32.6733 -0.41872 0.232184 242761 173288 669260 296163 261433 98202 
55 1 26.9972 32.6527 -2.36446 0.103467 -549227 -482277 328196 225353 127546 -24060.8 
118 1 27.0408 34.5394 -0.463002 0.370009 91005.3 562344 396570 192569 -68687.3 162452 
60 1 28.7499 34.4158 -2.33327 0.279291 -193738 -330067 382901 229249 253753 -193882 
121 1 28.8289 32.6142 -0.53853 0.207286 169061 -74273.4 -192151 -9845.9 72304.3 148013 
59 1 30.5792 32.7148 -2.40754 0.0755688 -505248 -435138 -411935 -236907 -135759 283562 
122 1 30.6475 34.5116 -0.505564 0.157894 -37516.5 124821 88928.1 369398 336320 133583 
64 1 32.3421 34.4715 -2.39931 0.156017 -106413 5137.81 208862 -161877 -18207.5 33457.2 
125 1 32.3627 32.7225 -0.600961 0.337434 -716816 -413176 -235218 -393886 9211.15 12899.1 
2847 1 35.9777 32.6589 -0.618347 0.360636 -121567 -264785 144754 698342 27835.5 268251 
63 1 34.1666 32.6272 -2.41764 0.233055 -452179 -677003 -96852.5 -535340 79425.1 -523894 
2778 1 36.0031 34.2866 -2.40854 0.401628 -322738 -483592 -139499 -385846 408877 271494 
126 1 34.2463 34.2765 -0.682516 0.705906 -524511 -709836 -354006 306850 271531 -50779.8 
1295 1 34.2292 36.1424 -2.49492 0.163254 455711 -13671.6 488727 -184962 197868 -253140 
69 1 25.0062 22.0765 0.00178455 11.7288 1.46147e+06 353516 1.47702e+06 335964 -425550 -45340.9 
68 1 21.6117 24.1016 1.57771 20.9707 429613 642128 1.16622e+06 100155 -19232.3 364947 
67 1 23.3482 22.4548 2.02998 14.2806 409702 -371512 1.09068e+06 33940.9 -347580 -663438 
130 1 23.7293 24.295 3.38735 5.63887 -1.19945e+06 -580819 -759785 -810647 454239 -191961 
129 1 21.7997 23.1534 3.96219 32.4859 -223770 681824 1.02346e+06 -441133 211075 190255 
133 1 25.3155 22.1927 3.56548 11.5453 11942.5 252744 343607 -446224 -124162 26184.6 
72 1 25.3898 24.0321 1.66427 0.491984 -63330.3 262990 -217130 -147627 429259 38344.5 
71 1 26.9956 22.0266 1.63843 17.2997 604773 199963 745214 -300652 -238464 56236.8 
134 1 27.1217 23.8373 3.46802 0.628494 -806670 -732635 -280805 2808.37 -10992.8 158497 
76 1 28.7074 23.7763 1.51176 0.300632 -556955 -1.14446e+06 128344 104018 -109082 315688 
137 1 28.744 22.0701 3.35624 15.6007 -228729 -724549 576088 -118873 17058.2 133099 
75 1 30.5128 21.9304 1.64651 16.7091 674350 340312 573658 -163120 104001 -389823 
138 1 30.4712 23.6887 3.38781 0.662604 -151900 -878606 -38238.3 -275566 -17029.7 256175 
141 1 32.328 22.0596 3.31798 15.3831 292198 85703.2 335935 101229 -258581 88500.9 
80 1 32.2047 23.7711 1.44818 0.187077 -151342 -519948 144512 544716 -61993.9 -207875 
2865 1 35.725 22.0176 3.3328 17.2595 1.35891e+06 411178 1.12507e+06 -363816 -68052.9 -155320 
2796 1 35.7404 23.7672 1.43374 0.349418 49964.8 161075 553423 171039 -513882 -103439 
79 1 33.9145 22.024 1.40224 16.5196 443778 143780 702854 222852 72175 301452 
142 1 33.9304 23.9885 3.28176 1.06961 -188368 192536 344644 -276961 151754 -119932 
145 1 21.6527 25.7805 3.45269 15.1216 402426 1.18322e+06 1.10432e+06 -252215 100417 -382240 
84 1 21.4833 27.5057 1.53005 18.9503 834191 1.30738e+06 1.58508e+06 -201521 35412.9 65129.9 
83 1 23.4755 25.8268 1.50062 0.724438 233091 -28102.3 -801486 -349152 -232724 119335 
146 1 23.5628 27.3195 3.44709 3.82266 -29422.8 153219 375349 -293528 2627.42 -293529 
88 1 25.3708 27.4215 1.43009 0.462597 -247818 -511213 -677102 41656.9 139568 656716 
149 1 25.6415 25.9697 3.34416 4.8643 -427917 -430042 -153444 -442606 -222916 470804 
87 1 27.2781 25.6158 1.39762 1.16621 -1.0129e+06 -694327 -152136 116195 245072 266345 
150 1 27.2352 27.6658 3.49128 4.72723 -724515 -138632 81224.8 -454446 -501112 134126 
153 1 28.8233 25.6844 3.41079 0.175153 112738 394707 310809 -244698 70120.9 -53726.5 
92 1 28.9341 27.3896 1.29029 0.986039 -694879 -577890 -329542 -197115 -46466.5 286639 
91 1 30.4644 25.4902 1.53816 0.677909 -396067 -208982 496612 281271 -201501 69957.9 
154 1 30.5 27.5326 3.31667 0.566603 -773589 -1.19552e+06 -52196.2 551341 -150579 181783 
96 1 32.2811 27.2863 1.24212 0.656307 137265 176231 697799 -95069.4 -91605 -147487 
157 1 32.1592 25.6723 3.32057 0.805892 -546609 -30545.7 344513 141303 -157165 -109835 
2883 1 35.8305 25.5446 3.24465 0.187805 -474019 -560256 284606 518396 -131959 -210011 
95 1 34.0997 25.6016 1.28089 0.490373 243257 -472219 155104 332613 -225354 -184262 
158 1 34.0767 27.1738 3.27497 0.883072 -359231 -155681 289491 347200 -153364 152611 
2814 1 35.9591 27.2505 1.35706 0.198639 198935 265357 844677 -185824 27627.4 173426 
161 1 21.7543 29.1047 3.61094 17.2952 1.01437e+06 1.63528e+06 1.5678e+06 141731 -3933.59 -276254 
99 1 23.4885 28.9605 1.52735 1.2195 -562139 207317 459619 577215 -234273 -130617 
100 1 22.0453 30.9404 1.66293 13.2015 184989 1.05837e+06 1.14131e+06 75649.7 -242109 -187989 
162 1 23.6647 30.8849 3.49613 0.324184 -858464 121605 60920.7 416614 -375.688 -171529 
104 1 25.2373 30.8952 1.58278 0.693175 299999 -39811.2 173040 105719 229167 -159653 
165 1 25.244 29.0962 3.42401 4.74406 -548718 -151212 454873 316398 285297 -99584.9 
103 1 27.1486 29.2044 1.34229 0.607298 -176653 -331137 -437188 -251052 312725 -158084 
166 1 27.1282 30.7846 3.29232 4.25319 -122571 424469 494448 270436 79703.7 -329346 
108 1 28.9047 30.9442 1.29547 0.248343 -568294 -1.41487e+06 -446588 212757 -190600 -93358 
169 1 29.053 29.3442 3.22865 4.72203 -1.54644e+06 -841234 36199.8 691231 373037 593110 
107 1 30.6122 29.2234 1.41106 0.523123 -867259 -526698 -269762 -190414 152017 -224400 
170 1 30.8929 30.9309 3.19326 4.34442 -463814 -588393 131053 -13052.6 5769.38 -44470.4 
173 1 32.4213 29.11 3.20244 0.281537 -636181 -343733 -191675 449895 248002 293968 
112 1 32.4618 30.8079 1.24652 0.431224 -371303 -9607.17 200691 -2891.89 477713 113267 
2832 1 35.8991 30.758 1.32284 0.305259 482170 361601 446081 245895 273247 -131495 
111 1 34.0593 28.9743 1.42621 0.784804 -121305 189903 704767 79280.5 253274 30696.1 
174 1 34.1864 30.9825 3.16755 0.244552 -567799 -203996 235278 60361.9 370466 82617.1 
2901 1 35.8751 29.1224 3.26075 0.224818 168235 467326 -190384 325568 -161816 283383 
1355 1 23.6129 36.116 1.69763 0.632754 -901727 -621645 616213 372286 241670 -352673 
1425 1 22.0561 36.1149 3.63023 15.124 143051 967655 1.29253e+06 293677 387415 -84728.4 
177 1 21.8688 32.6481 3.54113 18.8829 382202 1.39953e+06 1.7519e+06 -177789 -146950 -174698 
115 1 23.6563 32.8122 1.51594 0.714396 -558230 -14176.8 37822 -38761.1 -384998 153442 
116 1 21.7881 34.5415 1.65334 18.8834 304113 1.21978e+06 1.51328e+06 -334567 4728.67 -272229 
178 1 23.6437 34.3208 3.55045 0.470009 -641148 -655116 545377 577977 -99442.2 274097 
181 1 25.3663 32.6461 3.30842 0.665984 -199757 -698151 -112892 23418.9 87886.3 -528975 
119 1 27.0796 32.5608 1.3921 0.350784 -5199.55 -11865.2 152099 122911 104097 -476737 
120 1 25.4553 34.5412 1.59999 0.739825 -248187 -138415 579217 -89136.7 -168811 -26034.3 
182 1 27.2413 34.345 3.35359 0.15753 -499504 147755 432517 86632.4 -152769 -117190 
1429 1 25.4732 36.1191 3.56727 0.405885 151118 -209314 67671.2 281583 -56309.3 -157942 
1433 1 28.9656 36.1236 3.32653 0.178059 -204698 -302031 643810 212604 11558.2 -58006.6 
185 1 28.9279 32.5503 3.24829 3.95517 317843 401348 153388 233201 172344 -409399 
123 1 30.6842 32.663 1.28468 0.126847 -148404 -44269.6 363208 6957.57 95151.5 106859 
124 1 28.9309 34.3599 1.31197 0.399357 386694 608855 554532 257903 86769.9 -28375.4 
186 1 30.6956 34.4397 3.20428 4.24045 -92317 157804 230684 518829 355510 -425884 
1437 1 32.6885 36.0476 3.2462 3.91127 -195852 -171748 -126401 430133 435118 -783241 
1367 1 34.2502 36.1256 1.26092 0.518166 -458244 -532505 20885.9 34207.7 -7173.04 256333 
2850 1 36.1144 34.413 1.29662 0.178999 -57138.8 71723.4 188920 -97709.9 231066 256439 
128 1 32.4702 34.4614 1.36874 0.293077 -38763.7 -558380 -117958 -261710 -27728.1 73094.1 
2919 1 35.9514 32.6143 3.09893 0.439383 -441146 -755263 625313 433558 185784 104839 
189 1 32.5409 32.7791 3.14511 4.0644 -225123 -474325 297708 207294 -145254 634321 
127 1 34.2163 32.6512 1.16177 0.425241 69810.1 70056.1 -142528 118242 190956 370651 
190 1 34.3906 34.415 3.15567 4.06869 -636099 -680388 312171 926922 97690.2 519334 
131 1 23.6742 22.3942 5.34575 20.1953 258078 684051 1.06321e+06 -165431 93431.9 110152 
193 1 22.8622 23.28 7.66822 20.7283 801089 952521 1.516e+06 -158059 -138305 250955 
132 1 22.7357 24.8322 5.72595 9.09976 976314 1.10945e+06 1.41359e+06 -306591 311601 -37036.2 
194 1 24.7529 24.8604 7.62924 5.2397 -441245 176719 1.24707e+06 -280870 78480.4 -193278 
197 1 25.2917 22.4161 7.24161 14.3109 731832 393563 701288 -320120 -217205 -80117.8 
136 1 25.3456 24.2017 5.20461 5.56083 64309.4 -213803 371151 -645672 -200369 -71722.9 
135 1 26.9994 22.1672 5.29673 18.1536 1.01688e+06 322807 923952 -334437 -251362 365304 
198 1 27.1097 24.0975 7.16807 5.44678 -198230 -343513 165536 -421815 245266 448058 
201 1 28.8333 22.1229 7.2907 16.6684 1.09701e+06 757380 1.17732e+06 -105753 8174.76 -63472.2 
140 1 28.7814 23.8707 5.30658 0.214698 -16372.6 28634.2 232933 -148530 -68645.6 -177757 
139 1 30.6005 22.1123 5.25501 15.5556 1.20235e+06 70725.2 1.07543e+06 -124215 -146872 369597 
202 1 30.6117 23.9469 7.11362 0.15366 634993 272763 435555 -58006.8 -59786.7 -104547 
205 1 32.3396 21.9024 7.07787 13.4944 1.34663e+06 896736 1.3114e+06 -204059 -288449 -57655 
144 1 32.3208 23.8779 5.1827 0.227303 -165467 -61422.9 497176 -324369 138405 -85041 
2868 1 35.7734 23.741 5.13897 0.307723 54417 -645170 193148 255979 404664 -225231 
143 1 33.9827 21.9957 5.14393 17.6875 842923 478169 1.01806e+06 -24066.6 16922.5 -133397 
206 1 34.0767 23.7938 7.03343 0.151237 18842 147467 141048 85329 173357 149050 
2937 1 35.8477 22.0752 7.04338 16.8228 1.36057e+06 303402 1.31173e+06 372116 179060 43365.2 
147 1 24.5158 26.6082 5.67414 5.06761 1.15076e+06 355724 827262 -195277 -2149.41 153843 
148 1 21.865 27.2517 5.45756 17.1976 990011 1.35684e+06 1.0701e+06 -45865.1 117647 -61563.6 
209 1 22.8974 26.5123 7.68117 8.58177 116116 916420 846207 -50100.7 33422.7 55107.3 
210 1 24.6593 28.2533 7.6331 4.66453 -411868 -127680 458057 -3763.09 -172008 285628 
151 1 27.0987 25.8402 5.30093 5.61086 -231629 -64507.6 -590641 -482200 -493018 227339 
152 1 26.4067 28.2984 5.69337 5.99449 468656 430673 469147 -495458 397039 -242695 
213 1 26.4797 26.5413 7.61079 5.32056 -150118 -15225.3 514565 -308957 -39679 -133811 
214 1 28.2819 28.2818 7.57879 5.39866 -242239 -110091 14360.8 -380473 79489.4 4971.87 
217 1 28.8891 25.7676 7.04013 6.13569 -417719 51266.1 -323913 -150844 213381 -175074 
156 1 28.8896 27.6293 5.19482 5.50496 -819934 -250910 -537013 -258713 -325951 -7757.46 
155 1 30.5665 25.7258 5.24129 0.0942601 -514034 307904 40244.9 -239371 299717 276691 
218 1 30.626 27.6536 7.10954 5.2565 -370376 357446 255430 3030.33 88380.3 48008.8 
160 1 32.2549 27.4624 5.12335 0.349357 -355812 -647046 -83630.7 -132780 -93774.4 137512 
221 1 32.3875 25.7867 7.02739 0.418863 -257964 -75002.5 20713.7 -498044 21042.2 -210332 
159 1 34.1025 25.5974 5.2256 0.377102 -103054 -480744 -300723 -358564 251424 -38740.1 
2955 1 35.9177 25.5218 7.02913 0.222319 -236699 -79194.7 319755 63765.2 -225417 -78395.6 
2886 1 35.8624 27.3182 5.03064 0.264421 -349077 -178932 -62783.7 -339811 -179329 -139614 
222 1 34.1405 27.4091 6.96541 0.0864055 -1.0901e+06 -1.03941e+06 126002 -824275 306270 -227531 
225 1 22.3417 29.0263 7.32726 12.6746 -757633 482463 251661 -524935 303540 276528 
163 1 23.8047 29.0066 5.37419 5.58376 202702 351543 -426744 227498 841557 -172025 
164 1 21.9969 30.7477 5.43981 17.4213 576035 959143 1.09166e+06 -18011.4 196429 -372928 
226 1 24.007 30.6859 7.28292 6.03345 -997576 -197997 727648 -775113 210255 -146081 
167 1 28.1293 30.015 5.64533 6.134 630991 61430.4 1.37243e+06 -459367 46044.7 280261 
168 1 25.5938 30.8642 5.30812 4.92873 305823 590040 -35352 -358386 208398 -330724 
229 1 26.3465 30.0773 7.57361 5.10608 -169776 272504 455646 -111814 60876.3 93092.5 
230 1 28.1513 31.8685 7.66957 6.16373 -338548 -244796 61482.4 -107511 -400925 189304 
183 1 27.4776 32.4388 5.28917 6.35373 -380775 -173670 502151 -632040 420085 -99194.1 
171 1 30.6667 29.2725 5.1638 5.0209 -135353 -235671 74521.7 2419.3 -121892 106127 
172 1 29.8883 31.8217 5.52785 5.86279 602996 632937 1.5179e+06 -352646 -194146 113150 
234 1 31.8398 31.6838 7.51813 6.50926 267267 446106 1.0866e+06 -553965 -83188.6 -134529 
233 1 29.9544 30.0829 7.52682 5.09171 147430 164449 602374 -437023 30070.7 -317563 
237 1 32.5155 29.2618 7.01149 4.8073 -60987.8 -223081 58524.5 -168866 -46482.7 205236 
176 1 32.563 31.0585 5.05459 5.31778 341035 221651 413669 -159113 -75677.2 202077 
2904 1 35.9397 30.9326 5.09235 0.208196 195422 328568 452115 -4931.18 -182261 -272628 
2973 1 35.8815 29.0008 7.03204 0.872034 -532410 -163989 -6564.69 -529585 94007.8 188448 
175 1 34.1495 29.1461 5.07093 0.167457 -157577 232387 434505 190088 257102 234510 
238 1 34.2624 31.1257 7.02947 5.20849 -45136.8 286871 666330 -259229 7873.13 220577 
1497 1 22.2456 36.0821 7.4319 14.6727 -167283 352441 42589.6 -184075 -24660.8 -286887 
241 1 22.1289 32.5213 7.23607 15.9972 616467 862364 597438 -178612 382550 -251594 
179 1 23.7141 32.6122 5.33096 0.392817 -146401 91325.7 74595.5 -311222 288386 -46360.1 
180 1 21.9147 34.4227 5.62684 16.274 853559 1.18206e+06 1.45708e+06 116539 -120915 39076.9 
242 1 23.978 34.2519 7.27468 0.504276 -201946 5833.05 636317 260928 110482 111466 
245 1 25.673 32.5106 7.15868 5.69029 -40535.6 -518948 242630 5756.83 140822 -330728 
1431 1 27.2916 36.0897 5.31502 0.251889 -154213 196675 422870 -135698 126674 -315474 
1501 1 25.7326 36.0651 7.25686 0.168054 36307.3 663489 51677.5 -358673 -389724 429029 
184 1 25.5708 34.2397 5.21965 0.682355 291168 164099 220116 -428743 227891 143234 
246 1 27.5498 34.1837 7.17782 6.08222 -169706 -408884 -70772.3 -30147.8 162423 -35374.4 
1435 1 30.988 35.956 5.12909 5.86981 513298 282498 -114119 -337207 100525 -324515 
188 1 29.0697 34.2461 5.10859 5.76466 154842 -29389.8 14780.3 -459700 228945 -15401.7 
187 1 31.7049 33.4819 5.51029 6.18608 799561 558851 1.23397e+06 -400789 217151 -326370 
249 1 29.9375 33.5474 7.43855 4.96761 -143430 207844 717546 -451465 75799.7 -10357.4 
250 1 31.7672 35.187 7.38272 4.95901 -68218.3 -224118 714243 -221256 22756.7 3199.78 
1505 1 29.2643 35.996 7.09139 5.18637 114188 -54732.1 459315 -368767 -45171.4 -33231.4 
2991 1 36.0473 32.8289 6.89912 5.72535 -35434.6 -1.00126e+06 -27150.3 -356442 284967 7929.36 
191 1 34.2006 32.8751 5.07232 5.82219 156073 -18845.3 75031.4 -422297 -201105 425385 
192 1 33.509 35.2939 5.53683 7.05276 660365 -96448.6 807186 -463636 97276 -39640.2 
253 1 33.5339 33.4658 7.49111 5.75198 355794 -153126 755449 55556.4 22568.7 -270653 
254 1 35.5076 35.1221 7.39518 5.77219 26445.8 -315779 881394 -271565 27842.3 -394188 
195 1 24.5473 22.96 9.55202 14.3214 537347 869888 243156 20521.7 571629 -90379.4 
257 1 23.3256 23.0938 11.538 23.6579 316594 685004 777423 -368305 342925 -78800 
196 1 22.9387 24.9503 9.64824 16.3095 590255 916442 1.56676e+06 -500517 153147 71461.4 
258 1 24.9091 24.8581 11.5253 0.929924 -10749.3 -279367 639119 -911615 307709 -194541 
199 1 27.0799 22.3994 8.98959 12.2414 410325 -230867 108662 -238825 140197 163606 
200 1 26.4378 24.7189 9.58976 5.39506 334633 446741 187316 191648 142301 -267692 
262 1 28.1527 24.6376 11.4022 5.30371 433010 402572 347968 21046.7 -136657 33630.5 
261 1 26.3693 22.7488 11.3827 11.9706 1.22552e+06 795395 1.1357e+06 49819 56222.4 85612.8 
265 1 28.77 22.2244 10.8403 13.9146 623638 414107 663056 -102104 281387 -24432.6 
204 1 28.8748 24.0781 9.01238 5.52576 -598261 -556401 418928 -847575 -33832.2 24222.6 
203 1 30.5456 22.1181 9.04527 17.4532 1.17862e+06 689333 1.1512e+06 -97679.7 -251957 -85340 
266 1 30.6467 23.9338 10.8612 5.8261 655330 -333236 306474 -191252 -19503.2 247182 
269 1 32.4225 22.0704 10.8635 17.0103 1.24879e+06 658847 1.14028e+06 -51451.4 13215.5 -63487 
208 1 32.4403 23.8315 8.9076 0.277475 249234 153360 840683 25937.2 168809 -40025.3 
2940 1 35.8126 23.8314 8.90653 0.325732 492814 66991.3 347479 -2250.04 158134 -12479.2 
207 1 34.0552 21.9543 8.89685 18.1525 847963 479362 1.06127e+06 206770 -179247 91069.9 
3009 1 35.7998 21.9537 10.7114 16.5374 1.27218e+06 578000 1.32551e+06 211884 -301247 69209.8 
270 1 34.2289 23.8779 10.841 0.308087 -291125 -309081 111332 -269055 6593.73 107401 
211 1 24.6862 26.5911 9.58069 0.146273 -276815 29075.3 763192 -242098 -130210 70191.6 
212 1 22.9378 28.3111 9.63008 8.62296 340041 1.19237e+06 977653 240913 -68928 -69176.3 
274 1 24.7153 28.2988 11.5534 0.212345 -1.16498e+06 -598236 423486 422079 248738 -239955 
273 1 22.9879 26.595 11.6614 17.2608 390522 938776 1.09382e+06 -376692 -107714 -314954 
215 1 28.2572 26.5279 9.35036 4.79627 -192985 34994.2 458179 -474538 -194375 44203.1 
216 1 26.444 28.3809 9.56016 0.383369 -246149 -339446 583338 -151060 -82341 40962.4 
277 1 26.5574 26.6056 11.3959 0.547583 -302332 -408125 820013 -740721 -166404 -31446.6 
278 1 28.2657 28.2611 11.4338 0.234612 -725913 -682805 201836 -387135 -254984 243772 
219 1 30.6448 25.6353 8.99028 5.18326 -317520 -20949.2 328086 -500464 -121715 -188326 
220 1 29.9941 28.1114 9.49889 5.97312 -655414 -514870 447154 -685283 -55326.4 -227795 
281 1 30.0043 26.3315 11.3912 5.815 383942 236698 529701 -148025 253460 103649 
282 1 31.8264 28.1444 11.3487 6.11124 235192 459948 610401 45741.6 -3986.9 263031 
285 1 32.4253 25.6944 10.7787 6.25918 -220834 288163 170010 -366922 217160 -204562 
224 1 32.4887 27.4763 8.83396 5.43869 -311106 -414985 -165790 39609.8 -146664 -141979 
3027 1 35.9002 25.6209 10.7578 0.133788 -363035 -622342 -237896 -539583 -7343.86 179559 
2958 1 36.041 27.3168 8.78547 0.597379 191519 -361226 73866.5 -120656 -189507 388657 
223 1 34.12 25.6468 8.93511 0.217712 -405581 -338611 205823 233301 -17661.2 -112575 
286 1 34.16 27.444 10.698 6.27866 -67362.6 267657 489875 -258361 -249991 -153048 
227 1 24.7695 30.0898 9.65539 5.59337 -137381 -383456 553496 24024 139653 101202 
228 1 22.2468 30.7987 9.17637 14.4145 733050 1.40691e+06 1.50335e+06 -303221 263819 -43760.7 
289 1 23.1063 29.9645 11.6323 9.40935 -495882 346827 939979 470933 -90579.9 -163895 
290 1 24.7945 31.779 11.5429 5.5538 15795 -330903 202229 -464896 -278093 -669.325 
231 1 28.313 29.8749 9.47378 1.09867 -213652 -283920 419135 -492120 25778.3 42469.1 
232 1 26.5084 31.7772 9.53737 5.87275 -61160.2 614806 601903 -344417 134954 -53309.5 
293 1 26.5896 29.9888 11.5241 0.360419 -143301 -26124.7 149148 407691 -214695 -323579 
294 1 28.2496 31.9659 11.3964 0.74912 -237488 495548 44125.8 26528.7 -3607.31 -55594.1 
235 1 31.6853 29.8598 9.38345 5.4958 682473 630967 803173 -450161 68950.9 185852 
236 1 29.8512 31.804 9.39911 0.769549 -36497.9 -30854 488594 -321680 -284232 -145765 
297 1 30.0204 29.987 11.3505 0.143539 431913 55790.8 364364 -456951 -1534.85 -72771.5 
298 1 31.7909 31.769 11.3761 0.194334 -202649 -324838 117562 -98776.9 542532 327748 
3045 1 35.9159 29.253 10.7074 5.85115 93073.4 158404 551853 -181052 -233137 269343 
2976 1 35.9425 30.9317 8.87602 5.76216 -52971.6 -288303 141402 -176436 -578846 110996 
239 1 34.2073 29.226 8.81888 5.73401 -399963 271424 108018 -809820 -154966 44248.3 
240 1 33.4552 31.735 9.45383 5.35336 -34576.3 54445.8 -137694 116804 -90361.6 32220.7 
302 1 35.3081 31.6874 11.2967 5.93264 -799680 -388574 337829 -308163 -130402 110297 
301 1 33.5699 30.0695 11.3095 5.33856 -374204 51114 493478 -201816 116870 231819 
305 1 22.358 32.4574 11.1906 15.1274 712660 1.31987e+06 1.52929e+06 -170401 190582 -288372 
243 1 24.1005 32.4875 9.18573 5.17001 227650 172906 898962 -150207 136924 129479 
1569 1 22.3141 35.9679 11.1373 16.5379 130204 1.5057e+06 1.36402e+06 175293 -44988.6 127691 
244 1 22.157 34.1622 9.05278 13.9315 794163 1.52982e+06 1.57807e+06 161868 368119 -119424 
306 1 24.1241 34.2817 11.069 5.55553 -336410 121358 232377 264511 23204.1 -19135.1 
1573 1 25.8599 36.0778 10.9382 5.70337 -327133 37219 461752 -120725 22554.6 -173310 
1503 1 27.4647 35.9854 8.98445 5.86743 -394980 -675125 20271.5 -482826 -182816 -204687 
247 1 28.2706 33.6705 9.4706 5.10118 -511369 -1.06415e+06 -65283.3 -140579 -404948 77465.4 
248 1 25.8355 34.2793 9.04507 6.56167 -220290 -187870 381599 -919365 54250.8 122957 
309 1 26.4278 33.5766 11.4987 5.3347 -1.12761e+06 -629029 316152 -120975 -107152 233439 
310 1 28.1586 35.3115 11.4548 5.13894 -212846 -571283 83309.3 -79729.5 -79748.6 90688.2 
251 1 31.6956 33.4099 9.45155 0.461601 -237609 32897.3 603721 142776 248505 455.575 
252 1 29.9828 35.2701 9.39685 5.2342 327294 -401212 728640 -469871 -204064 423885 
314 1 31.8581 35.2837 11.3293 0.276482 66519.6 -35171.9 254518 -262786 247624 209013 
313 1 30.0711 33.6605 11.3319 0.443534 -374613 -88869 192871 -407919 256104 23477.4 
317 1 33.6028 33.4285 11.2905 0.111362 -31127.5 -421066 260786 -43256.3 92664.9 109555 
318 1 35.4798 35.1003 11.2589 0.226336 -287243 -157463 16087.1 265505 200193 331801 
255 1 35.4159 33.3068 9.33325 6.17007 62566.5 -62834.8 704455 39471.2 211644 -46811.1 
256 1 33.607 35.0696 9.43024 0.453042 291225 -195318 681330 311995 38684.3 62050.4 
321 1 23.1333 22.9765 15.1874 33.2318 418787 671583 698479 49951.9 183180 123454 
259 1 24.8854 23.019 13.4878 13.8115 343699 492798 1.13328e+06 -351316 97586.5 -96907.4 
322 1 24.9219 24.6712 15.487 1.30473 -733393 -182748 230677 -274113 -258720 -13055.7 
260 1 23.0651 24.7933 13.5296 17.1041 484333 492911 1.33054e+06 -325912 -8318.29 -12271.5 
326 1 28.4153 24.7753 15.2078 0.431174 -347395 -113601 23385.9 -26217.9 31992.8 -26602.7 
325 1 26.7541 22.8661 15.2631 13.9359 957269 420427 667765 -127848 165383 22316.6 
263 1 28.2415 22.8673 13.1839 8.97935 534440 -329837 599572 4387.33 100901 287870 
264 1 26.629 24.7201 13.4539 0.518574 -475767 -465238 762381 -81147.9 -128401 -19931.9 
330 1 31.7407 24.6479 15.0498 4.52955 151052 -8653.98 416566 -480795 -63590.7 -60480.4 
267 1 30.6497 22.2246 12.702 14.3081 842459 610.823 936712 -192819 351794 134880 
268 1 29.9925 24.5841 13.2394 5.07873 246790 -89365.4 33782.7 -92558.5 -21800.6 330158 
329 1 30.0282 22.8859 15.0917 8.54017 827186 -7452.91 945425 -26001 -131892 262721 
333 1 32.4334 22.149 14.6128 15.008 644594 470008 598349 -164170 13694.6 258275 
272 1 32.5065 23.8619 12.7497 5.53834 -335973 -646403 260953 159985 -152230 -47007.7 
3012 1 35.9794 23.8877 12.5593 0.4182 -534370 -248691 -18289.5 -112578 -14531.9 125938 
3081 1 35.962 22.003 14.4549 16.9716 1.30618e+06 892263 1.43392e+06 -89418.1 264325 -24659.7 
271 1 34.1214 22.1264 12.7409 16.5883 592539 -51131.4 918693 478203 -162815 19374.6 
334 1 34.2031 23.9642 14.5311 5.68869 -82276.5 -887926 -487765 -658898 -272391 224304 
337 1 23.1347 26.408 15.3969 15.9968 492773 1.10061e+06 866055 138258 -107088 -75508.5 
338 1 24.8806 28.3024 15.3804 0.283911 -846594 -289310 580369 464631 7733.06 -49910.2 
276 1 23.1435 28.1986 13.5044 15.3435 178888 683531 322799 83598.6 108798 -357886 
275 1 24.8707 26.4222 13.4392 0.360015 -736263 -186555 585025 -108258 -186438 -336150 
279 1 28.3034 26.4785 13.2888 0.213736 -120529 -176320 375661 -139341 82583.5 229722 
280 1 26.5465 28.2092 13.4738 0.30376 26506.4 -442525 305597 84949.8 157585 56614 
342 1 28.3796 28.1458 15.3326 0.518476 -1.09586e+06 -411718 371586 50116.3 -425047 -19948.9 
341 1 26.5853 26.4919 15.3085 0.257932 -93903.3 -647988 161190 -181502 -109445 220149 
283 1 31.9096 26.3483 13.143 5.96849 -61511.5 391627 -35284.2 -122222 -433044 213011 
284 1 30.0646 28.2613 13.1826 0.393902 402518 241302 462546 100043 -126376 66843.2 
346 1 31.8623 28.209 15.1276 0.142025 40127.4 151428 870418 -252437 72241.6 -75985 
345 1 30.1014 26.5523 15.1854 0.511938 -918218 -529146 640305 69030.5 -118085 -30150.8 
3099 1 35.9156 25.613 14.5038 5.1541 -836001 -217972 -714796 -524041 -144798 -48993.7 
3030 1 35.9221 27.3764 12.6241 5.10589 -613765 -305359 229196 -167699 84512.9 -157800 
349 1 33.5183 26.3467 14.9681 4.97509 -355934 -130313 -178891 218826 -375084 39348.8 
288 1 33.599 28.1715 13.1528 5.19207 -514480 -287863 671523 -584106 -144331 11933.1 
287 1 34.2439 25.6587 12.6681 5.05513 -1.05443e+06 -581462 -516516 -239215 151534 -182867 
350 1 35.4042 28.1956 15.0273 5.3368 -554832 -365994 -330840 341139 230165 501548 
292 1 23.1051 31.6629 13.6407 11.6498 -53367.8 674571 979526 154084 -213782 -108912 
291 1 24.8784 30.0405 13.396 0.315265 -680454 -278886 97871.3 358982 -145098 -97202.7 
354 1 24.8815 31.8164 15.3278 0.238848 -195829 409464 161299 259965 -681189 -405631 
353 1 23.1002 29.88 15.3867 16.5249 113205 592135 757170 593126 -167646 63285.7 