ITEM: TIMESTEP
16400000
ITEM: NUMBER OF ATOMS
5780
ITEM: BOX BOUNDS pp pp pp
3.4408156838266497e+00 6.8859184316188873e+01
3.4408156838266497e+00 6.8859184316188873e+01
-5.6714862219772275e+00 7.7971486221992762e+01
ITEM: ATOMS id type x y z c_csym c_2[1] c_2[2] c_2[3] c_2[4] c_2[5] c_2[6] 
69 1 25.0404 21.5426 -3.99246 12.9782 399828 164951 715305 208449 -142832 -14652.5 
65 1 21.7326 21.5427 -4.00305 44.9604 405582 301008 615264 -38785 -173551 -266907 
81 1 21.4903 25.1766 -3.90972 14.0539 -67704.1 572985 509061 -55378.9 36111.5 -144678 
68 1 21.4513 23.2547 -2.30425 24.1164 771852 179398 1.08548e+06 338195 325734 -73767.5 
66 1 23.3455 23.3528 -3.95781 6.192 -1.13611e+06 -796496 -61836.2 -258454 -158197 456970 
19 1 23.318 25.2181 -5.64168 7.22549 -1.37501e+06 -894504 442551 -239302 -143248 -24633.6 
73 1 27.3608 22.096 -3.31905 10.8488 -51109.5 172892 322065 -46707.1 331540 -107082 
70 1 25.6454 23.9256 -3.37501 5.82998 -712469 -262647 -400085 -289174 72773.3 359542 
12 1 27.4483 23.8981 -5.18418 6.48131 -743971 -677086 418848 417677 409225 -15903.4 
11 1 29.0709 22.118 -5.21136 9.93001 -12097.1 -429346 951019 41766.1 205662 294382 
77 1 30.9454 21.9944 -3.41003 15.8338 812978 -172497 1.31968e+06 -407784 8038.71 146120 
74 1 29.2409 23.8196 -3.25756 0.497395 47672 78803.2 431403 -243646 45674.9 -165592 
16 1 30.8329 23.7656 -5.2239 0.199012 -130486 -551513 506246 -344060 159372 532661 
2793 1 34.3346 21.8461 -3.2853 17.5975 1.25904e+06 779478 1.2667e+06 -95858.3 235599 65049.9 
78 1 32.5274 23.7274 -3.2064 0.28908 162320 -551917 736829 -738659 58004.8 30955.6 
15 1 32.628 21.986 -5.22449 16.8216 612621 309848 837700 -70884.8 339655 167289 
2724 1 34.4062 23.7051 -5.11138 0.123195 95955.1 -666585 730556 189016 -125050 -4051.09 
2723 1 36.0934 21.8931 -5.06624 16.5807 914019 422959 682110 163989 -282790 -271804 
82 1 22.0018 27.5221 -3.08911 9.43068 273023 260457 1.14815e+06 -56939.6 186551 75462.3 
24 1 23.7946 27.4856 -5.06952 6.62069 577713 -672074 534216 -28447.2 -68620.4 -168866 
85 1 23.7759 25.7186 -3.21012 5.84107 -28275 13302.8 59313.5 -166914 26827.9 -203155 
89 1 27.4141 25.639 -3.33476 0.310256 -45058.8 -71886 242019 -466426 174992 -28249.6 
23 1 25.6213 25.5376 -5.13821 5.8521 -845847 -1.22222e+06 107484 -310709 -493022 276531 
86 1 25.6152 27.4351 -3.16209 0.213372 153230 412382 123835 -105095 487646 -186810 
28 1 27.2582 27.4812 -5.11387 0.585298 -252675 -112893 -338915 48385.1 -348574 428065 
93 1 30.885 25.6174 -3.20222 0.308661 -394638 -367896 466587 -465500 227160 35517.9 
90 1 29.1219 27.402 -3.25113 0.310256 72063.7 -542303 518307 47366 26050.3 87957.8 
27 1 29.1348 25.6129 -5.2261 0.270096 -338320 115200 327604 -503941 463257 217002 
32 1 30.9813 27.3133 -5.1073 0.167633 -289614 -369809 -416503 -61982.6 185179 -81701.9 
2812 1 36.1056 27.14 -3.15312 0.393465 510892 202589 1.08879e+06 38916.7 -28782.8 59874.5 
94 1 32.6856 27.2181 -3.21886 0.21828 -443043 -376246 722781 -48147.8 108349 41674.5 
31 1 32.6851 25.43 -5.1193 0.329699 -690357 -556661 -101299 -9428.69 125192 312943 
2811 1 34.3312 25.4246 -3.08399 0.382243 -39967.4 161059 919423 -127958 -16861.8 193449 
2742 1 34.3456 27.2367 -5.13859 0.445526 -734471 -357406 -100293 -76880.3 -70817.9 -119457 
36 1 21.5404 31.6892 -4.44236 26.6616 -110688 818515 829281 43594.9 -51516 131683 
97 1 21.4626 29.9294 -2.63302 27.9284 -269361 429673 949010 -165848 658.453 -209412 
101 1 23.7648 29.2452 -3.1805 6.17945 -281833 25152.7 192958 -52866 98021.9 -248947 
35 1 22.0311 29.2127 -5.02852 9.51024 -9515.29 698854 858077 160629 105952 231169 
40 1 23.7746 31.0372 -5.1521 5.62548 -462199 -210975 178462 -21769.2 412214 -85126.9 
98 1 23.1851 31.6027 -2.58919 5.73351 -728862 -566165 89095 -221798 -150325 -120094 
105 1 27.4742 29.2108 -3.17154 0.317531 -782213 -89542.3 -256524 -2402.57 -157961 -265364 
39 1 25.6089 29.2722 -5.06056 0.129227 -296441 -522088 166280 49009.4 234420 -77777.8 
102 1 25.6121 31.013 -3.25098 6.10099 83500.8 -97608 447481 -448109 475250 -292447 
44 1 27.3741 30.9888 -5.02876 0.111606 -470297 -234687 -259607 -464731 416393 -260848 
43 1 29.1982 29.099 -5.02725 0.343399 -68374.1 -5306.47 -216352 -207144 242352 62612.5 
109 1 31.0142 29.061 -3.23545 0.333849 -69410.7 268821 438250 -116950 -137683 -132792 
106 1 29.2204 30.9188 -3.18443 0.161468 223162 115177 665557 -374781 53046.8 158851 
48 1 30.9551 30.8937 -5.19238 0.723618 6262.09 -56492.3 293440 -390786 161162 -197484 
2829 1 34.4174 29.0316 -3.12844 0.187248 355647 459607 767736 -395391 -111111 2314.78 
110 1 32.6289 30.9724 -3.12577 0.737408 215792 -392105 -16237.4 -279203 167832 41779.1 
47 1 32.752 29.0842 -5.04304 0.216471 -412531 -60415.6 72566.5 185645 250868 206331 
2760 1 34.6095 30.8261 -4.92114 0.796273 20332.8 -137601 -235794 64968.9 -699117 -152614 
51 1 23.3013 33.4764 -4.48737 5.17246 -156672 391621 467702 1578.29 -63599.9 -130670 
1281 1 22.6275 35.8579 -3.89855 23.2867 52861.5 876897 769157 320194 131380 30431.8 
117 1 25.0128 33.3876 -2.60712 0.201389 -623706 65395.6 324068 -278219 -322626 -98948 
56 1 24.9755 35.3687 -4.33288 0.945141 -244823 -273749 -437814 -81498.5 309040 -42667.4 
121 1 27.369 32.6596 -3.18881 5.40578 -328677 -570268 132884 -447835 368212 -345093 
55 1 25.6217 32.7812 -5.17049 6.51295 -640109 -150047 -4302.4 -254891 220667 204347 
60 1 27.3903 34.4774 -5.00466 5.76378 -142920 -274957 142764 -217721 -375917 -284945 
118 1 26.7651 35.063 -2.54779 0.318874 -580315 -244974 66444.4 -2123.24 -5474.56 15147.7 
125 1 30.9377 32.765 -3.21679 0.545483 774.489 -41477.5 83936.1 149633 321568 85663 
59 1 29.1018 32.7382 -5.07532 0.300365 -82792.7 -359963 131474 -104790 -90953.2 -48342.7 
122 1 29.0631 34.4674 -3.15988 5.74639 -749342 8067 57209.1 -196177 -92218.8 -221083 
64 1 31.0339 34.3889 -5.05186 0.384963 415559 309833 287102 87262.7 -61765.9 355042 
1365 1 30.9778 36.0551 -3.03431 5.4742 508099 238498 1.07191e+06 -133421 -36183.7 477663 
2847 1 34.4794 32.6208 -3.16059 0.30459 -809153 -358287 235117 398151 97694.7 -208442 
63 1 32.7201 32.5949 -4.96313 0.480619 -256735 4599.08 71202.1 62779.3 90576.6 151518 
126 1 32.8773 34.414 -3.07971 0.403866 -568759 -293611 655554 -57861 15153.7 -22209.5 
2778 1 34.557 34.4379 -5.08067 0.609911 192664 -527416 397330 943151 247692 86053.4 
4242 1 34.6096 36.0469 -2.93663 0.513187 -317537 -548809 676628 -28102 41242.9 162409 
67 1 23.3155 21.6295 -2.17506 19.8376 129450 -80360.1 711211 -16275.4 -220739 203509 
133 1 24.1569 21.9508 0.352102 14.9808 293454 -138398 1.08387e+06 -453292 70712.5 -51291.6 
130 1 22.2978 23.5929 0.265494 10.3656 391744 676909 1.618e+06 -107637 228374 477109 
72 1 24.0664 23.8313 -1.45511 5.54549 79907.4 -387176 64454.7 -214739 400360 -49767.1 
137 1 27.4186 21.8785 0.508157 16.6457 976770 798298 1.06312e+06 -311953 196031 14941.3 
71 1 25.7458 21.956 -1.51609 10.4127 225979 455559 596359 -152743 830579 54997.5 
134 1 25.6214 23.7871 0.562073 0.566579 -440565 -890311 344648 -989720 28133.9 -133194 
76 1 27.3997 23.8127 -1.49307 0.408432 62925.5 -673909 574904 519549 -43595.2 -440458 
75 1 28.9757 21.8948 -1.41957 16.3785 1.44848e+06 672575 1.39067e+06 248025 -36930.4 11538.3 
138 1 29.0309 23.7338 0.549928 0.4209 -11066.7 -453147 957005 229555 118252 -31835.8 
141 1 30.8532 21.8054 0.484722 18.2793 1.39873e+06 651599 1.38891e+06 -271574 396856 -58956.9 
80 1 30.8196 23.7294 -1.31306 0.150964 -140060 231931 281390 118597 -260116 62554.8 
142 1 32.4994 23.6731 0.521354 0.54133 -738549 -679273 12775.5 356701 -233725 -33940.6 
79 1 32.622 21.9267 -1.36185 16.8701 737058 301057 731975 -143707 -234951 -23545.1 
2865 1 34.2152 21.951 0.481853 13.802 961861 46380.8 483788 326234 -186684 152237 
2796 1 34.4131 23.6281 -1.29681 0.195562 -54965.8 -974479 234731 -29425.7 173713 325241 
2795 1 36.0864 21.8776 -1.33949 16.2682 1.00304e+06 -123149 1.09331e+06 154500 -168686 -87522.3 
2883 1 34.4556 25.2214 0.627121 0.92533 293286 -155138 -263164 21015.9 -81178 435352 
84 1 21.3517 28.0083 -0.775534 29.6237 1.16749e+06 1.62758e+06 1.12588e+06 -134515 83850.8 -314346 
145 1 21.5015 26.0583 0.956746 30.7351 466383 1.31034e+06 769545 -46066.4 255246 -215460 
149 1 23.8834 25.5536 0.462415 5.91675 -490384 -39193.1 390856 32918.8 -448105 -197396 
83 1 22.1455 25.4849 -1.3382 9.95279 122568 992640 192042 54225 160411 284606 
88 1 23.9684 27.4316 -1.35867 5.99545 488905 50888.7 28430.5 -259063 271816 -128423 
146 1 23.2107 27.9452 1.05337 5.5306 326114 79263.1 680875 189277 231070 114364 
153 1 27.3895 25.3792 0.589478 0.756955 -831585 -611953 15222.6 332928 -172075 108751 
87 1 25.8193 25.5871 -1.32845 0.866739 -868830 -1.24167e+06 320128 -597751 -58885.5 -162272 
150 1 25.6434 27.2937 0.575241 5.23784 -53793.9 276819 -70045.2 -162600 13778.1 25317 
92 1 27.3821 27.2553 -1.22773 0.57654 -702774 -489257 656540 -790330 -12588 -134552 
157 1 30.852 25.4545 0.711205 0.435192 -971547 -2436.21 -220394 60047.7 37785.9 -49776.9 
91 1 29.2171 25.5925 -1.27395 0.38657 -281048 -304797 565921 -94676.2 170219 -105006 
154 1 29.145 27.3378 0.633618 0.221993 -120509 -205397 66834.6 296017 207458 -385512 
96 1 30.9441 27.2316 -1.26219 0.172181 -225057 -261676 747844 -571128 218.339 -233244 
95 1 32.6082 25.4184 -1.25316 0.146499 -112728 -399399 -1384.52 -46973.8 154326 -109647 
158 1 32.7092 27.0896 0.612898 0.703497 -408258 645435 -336702 -283789 500120 -94647.4 
2814 1 34.4013 27.2016 -1.036 0.973593 -52091.8 464777 439501 -267927 512796 -161469 
99 1 23.1918 29.747 -0.80323 5.39169 66926.1 -80828 234695 72577.7 91533.6 63324 
113 1 22.5941 32.1111 -0.253347 21.7057 428580 1.25941e+06 988184 365492 243132 -320706 
104 1 24.9526 31.5108 -0.80374 0.176524 -145351 177860 60226.2 -258584 -186010 176287 
165 1 24.9744 29.7994 1.04473 0.25863 -21469.9 -51683.2 -40942.3 -375289 2803.92 -16221.8 
169 1 27.4667 29.0996 0.612548 4.75738 -108359 -265612 -129862 385341 -57857.1 46668.3 
103 1 25.6789 29.1567 -1.39429 6.17407 -52565.4 -264741 588855 -468322 261353 -446756 
108 1 27.5047 30.8608 -1.28476 4.75341 -25050.4 -399731 76597.2 278270 163614 -289832 
166 1 26.7132 31.4857 1.02138 0.154428 -156791 -506668 150108 -639334 80274 -105948 
173 1 30.9462 29.0567 0.66413 0.302515 15472.8 -193522 222660 -157766 308087 56516.7 
170 1 29.3016 30.8328 0.501779 6.34518 -494711 -821762 262463 -123595 276819 -4101.41 
107 1 29.1069 29.0973 -1.40034 0.641027 47340.4 -291301 69318.6 371292 -277922 -211378 
112 1 30.977 30.8905 -1.23816 0.180575 -639067 32621 -177975 176847 524413 -183978 
189 1 31.0208 32.5149 0.682124 5.12033 -450659 -248556 387688 -351734 -207301 -533349 
2901 1 34.4788 28.9751 0.760709 0.376199 -911417 -657456 -251269 -53537.7 329228 -169473 
174 1 32.7181 30.7839 0.608305 0.326996 -261574 -461452 58117.6 126307 272000 81049.4 
111 1 32.5921 29.0509 -1.27111 0.391757 -21127.6 56426.9 698418 -217009 103547 -208572 
2832 1 34.4004 30.7467 -1.18176 0.188985 -544875 -251466 408181 65827 256073 -108481 
2902 1 36.1246 30.6977 0.742113 0.428414 -524704 -260269 74976.9 100921 178427 21965.1 
52 1 22.5922 33.9381 -2.13046 21.2318 597188 1.05625e+06 1.07856e+06 436964 238521 -203984 
1283 1 24.3976 35.9069 -2.06164 5.31842 -94068.1 294095 -730122 -7841.9 477467 16138 
114 1 24.3383 34.0762 -0.272187 5.50931 18108.1 640977 424566 175328 63559 71444.7 
1357 1 26.216 35.7644 -0.171661 0.478819 -235721 -405370 -522365 -270957 -54789.4 288943 
119 1 26.7284 33.2945 -0.829393 0.266669 23707.6 15933 -492384 -106982 -149129 223200 
124 1 28.6014 35.0265 -0.772045 0.225191 -191202 -123407 -65799.2 208380 -92508.6 -429144 
185 1 28.5091 33.1226 1.09572 0.43772 71664.5 -67782.8 197016 -128815 97324.9 -171335 
123 1 29.244 32.7087 -1.21613 5.33619 9271.74 -737691 168285 -166581 301680 62664.3 
128 1 30.9765 34.3714 -1.32067 6.30791 -89796.6 -283676 82967.1 -385646 194513 117295 
186 1 30.2846 35.0206 1.10902 0.418879 -95210.9 -20435.4 48994.4 361898 198951 323449 
2919 1 34.5161 32.5517 0.72588 0.246983 355529 264834 737425 43844.4 176531 -85518 
127 1 32.7863 32.5617 -1.27914 0.361814 126032 -378967 241770 4733.54 165635 -113845 
190 1 32.6541 34.3551 0.749723 6.10084 1229.14 224635 533197 -152437 149251 102292 
2850 1 34.546 34.4044 -1.10049 0.341641 -55506.3 -305490 -189947 170439 -62186.9 89717.1 
1367 1 32.8182 36.1465 -1.03212 5.73056 -131012 -438164 134326 360643 103373 44245.6 
4323 1 34.5966 36.078 0.714719 5.93993 -364328 -291055 -417390 285261 -213091 -385559 
193 1 21.7031 22.677 4.45091 46.8549 869858 6453.96 446755 123655 -95522.8 453346 
129 1 21.6868 24.3065 2.77116 27.6744 -337233 269661 633209 28139.8 20854.6 417609 
131 1 22.3456 21.8352 2.23573 48.9927 819939 663817 1.11334e+06 -148599 45224.5 -144896 
197 1 24.0348 21.6997 4.18674 18.5857 908811 781412 451213 -283263 362181 -256463 
136 1 23.9256 23.6624 2.34186 4.98048 -927157 41771.4 770703 -409909 374935 -280861 
194 1 23.3405 24.5117 4.74731 4.9331 -1.27472e+06 -27182.4 165228 -426828 159639 352216 
135 1 25.7269 21.8434 2.35204 17.2845 946954 576186 652924 -87664.4 -61115.3 74654.9 
201 1 27.2184 21.8631 4.32015 15.8909 671407 385496 397537 106128 227403 165847 
140 1 27.351 23.7587 2.55769 0.728412 316885 474758 472044 -197117 -293724 394358 
198 1 25.5269 23.6857 4.36029 5.06821 -276612 52850.4 438299 584402 118450 -759.528 
139 1 29.1141 21.8272 2.35218 16.2142 1.19227e+06 430623 1.24569e+06 -405713 -217233 -79027.5 
202 1 29.0777 23.5732 4.27059 0.43425 409295 495690 690356 45038 -254452 -29610.1 
205 1 30.7311 21.6727 4.38994 18.4185 1.25976e+06 557793 1.46503e+06 47070 -314818 1936.51 
144 1 30.8823 23.4776 2.47728 0.616703 -477156 -460387 488975 -298474 -74610.7 14636.7 
206 1 32.502 23.5084 4.31354 0.398043 85168.5 -33079.8 -241765 61619.5 -52352.4 25248.4 
143 1 32.5953 21.7666 2.49856 16.9693 1.15043e+06 110565 1.57322e+06 204131 106936 -288486 
2937 1 34.4627 21.8138 4.37005 13.8066 862867 -186756 1.22157e+06 -772134 -194533 -323105 
2868 1 34.2363 23.6279 2.38155 0.712756 551534 -330568 220947 -119839 -79366.1 343226 
2938 1 36.0361 23.5134 4.31197 0.237569 -33155.4 -756257 865002 -1.04461e+06 127039 -186729 
2867 1 36.1484 21.854 2.39546 14.8411 1.30355e+06 110748 1.07382e+06 -496705 -5288.9 130582 
147 1 23.2407 26.225 2.92216 5.14792 -694527 -231271 621492 -318447 57224.5 368846 
152 1 24.9495 27.9347 2.94792 0.120645 42858.8 -530821 -162936 -452744 200050 -198348 
161 1 22.4946 28.5359 3.48451 21.109 589507 604901 931358 137108 132104 252694 
151 1 25.523 25.5233 2.36045 5.85313 -276935 -316881 403315 -35134.9 186633 -284500 
217 1 27.422 25.5583 4.47616 5.20107 312544 -179664 665568 -444181 90150.8 329792 
156 1 27.4116 27.2437 2.40686 6.43281 -248563 193663 541043 -283588 -102114 87597.9 
221 1 30.8891 25.4228 4.4636 0.384522 -582484 -124657 -170513 -21792.4 140432 49781.6 
155 1 29.2067 25.4631 2.46477 0.374312 153606 293425 -42311.1 -13947.4 425862 -311436 
218 1 29.1235 27.165 4.27559 6.34728 -322748 -564412 718848 -563286 -69318.4 -88214.7 
160 1 30.9996 27.3502 2.51503 0.961538 274411 132537 430500 249405 76094.2 14604.4 
159 1 32.467 25.3555 2.53686 0.678842 -344087 -448081 10234.8 93964.2 -279678 122330 
222 1 32.6052 27.1353 4.53515 0.330382 -543059 -157696 393797 -286264 -120399 -280726 
2955 1 34.3071 25.326 4.38573 0.047884 395061 -23703.2 668115 119695 -127737 109676 
2886 1 34.3238 27.0687 2.53185 0.504696 299434 265706 520013 -126559 -86700.2 274296 
2973 1 34.3521 28.8772 4.51765 0.339797 74828.4 88745.4 508227 202869 279625 316441 
2956 1 36.0908 27.0887 4.48633 0.223374 268908 282971 524470 87027.6 107216 265934 
100 1 22.5228 30.2238 1.67787 20.079 437410 780833 967245 279010 -110453 67211 
115 1 24.3127 32.1644 1.58874 5.42188 -29888 435302 345708 208972 121147 45237 
162 1 24.294 30.3338 3.3458 5.42686 -322358 163737 -384282 -41984.7 242601 -105963 
181 1 26.0918 32.0404 3.41754 0.226921 611240 -20867.4 442032 -100861 -16073.4 -301339 
167 1 26.7244 29.693 2.90552 0.152799 -141837 -88193.1 296743 -67378.4 276208 -247551 
172 1 28.5409 31.4081 2.99008 0.130371 211375 -18758 858710 -356985 295849 -51387.3 
237 1 30.8688 28.9868 4.5199 5.4892 -160121 -329400 127058 187812 -122552 107427 
171 1 29.1092 29.0047 2.45252 5.97102 -669805 -487343 42731.5 -224210 -108788 -436520 
176 1 30.9676 30.6561 2.64078 4.86567 -393716 -31790.7 524218 159048 -106556 -124438 
175 1 32.7921 29.1236 2.51601 1.2079 -613660 -39197 346327 149311 114905 -120046 
238 1 32.7134 30.7485 4.47439 5.72402 -426356 -103402 315105 -211385 -199273 -24628.8 
2904 1 34.5778 30.7682 2.68146 0.657618 -700418 -756087 146281 213469 257805 -226074 
191 1 32.696 32.4728 2.59105 5.74132 -1281.81 88750.1 551247 -342243 -364716 50288.5 
2903 1 36.0462 28.9313 2.67046 0.590219 -349516 -610245 -80600 673867 -182236 -95528.1 
177 1 23.4392 32.7841 3.86412 13.0866 846949 660320 517881 -136809 106411 518627 
116 1 23.5378 34.5706 2.13807 12.1538 556236 970071 1.04962e+06 -122045 -148861 73107.3 
178 1 25.3357 34.4508 3.8823 5.57211 235483 371420 168709 -28208.7 49424.7 267192 
1359 1 27.8941 35.575 1.61319 0.331268 -491957 -175656 -360388 -452133 -294302 21256.6 
120 1 26.1034 33.9239 1.50573 0.371391 192566 -169117 78878.1 -446673 43879.5 115153 
182 1 27.8759 33.8826 3.54608 0.318936 382124 147239 345798 88548.2 252775 37057.8 
1433 1 29.6816 35.6421 3.49349 0.186995 -443250 -1.13388e+06 -733097 -536738 119875 425926 
187 1 30.2429 33.1719 3.00963 0.287141 159536 455932 752922 -307407 243474 -376956 
192 1 32.0785 34.9223 3.13141 0.199596 -58246.7 -104648 50040.8 244433 564573 -446498 
2991 1 34.388 32.5272 4.51769 5.9051 -43727.3 -293227 351633 -196397 -9821.95 -20986.2 
2922 1 34.4224 34.27 2.64913 5.8851 -22252.9 -65257.2 726968 -56855 -2950.74 -139011 
195 1 23.3847 22.5731 6.36815 24.6191 -187233 408159 305319 76903.3 157015 -19390.2 
132 1 22.6113 25.0492 7.05066 34.3179 581495 997898 773275 -202215 233293 63485.7 
200 1 25.0128 24.4197 6.70445 0.557313 -344672 463747 67561.5 -217032 198869 3235.27 
199 1 25.6678 21.908 6.08675 14.7509 -226391 310102 191807 -42835.4 432252 352101 
204 1 27.3532 23.8119 6.23429 5.7929 -277562 -189431 407166 -214778 -114107 711521 
265 1 27.1637 22.1923 8.11666 11.7848 843308 -399380 329497 -573775 351001 57425.3 
203 1 28.8739 21.7985 6.27778 14.8457 1.43055e+06 770385 1.24405e+06 233500 -187977 -54470.8 
266 1 29.0265 23.6959 8.11136 6.02509 -86272 -289480 462110 -475638 -374307 259986 
208 1 30.8822 23.5681 6.19769 0.482912 -409771 -1.09517e+06 471558 88729.1 86002.9 226471 
269 1 30.6744 21.7599 8.01496 17.0249 781009 450660 822661 -48659.9 71729 65842 
270 1 32.4688 23.5552 8.20522 0.440024 -14485.4 -32084.8 -9990.99 -30815.7 91596.8 470895 
207 1 32.4439 21.7724 6.22344 17.1363 348232 9770.62 899099 392394 -427388 121254 
2939 1 36.0459 21.6493 6.30317 16.2757 851250 908471 1.09217e+06 92999.4 -36485.5 -134997 
3009 1 34.2194 21.6624 7.90204 15.5246 920543 679843 1.01556e+06 76423.3 -22747.5 305357 
2940 1 34.2615 23.5188 6.21072 0.187269 505082 -260432 488283 44708.7 25502.3 -1172.74 
3010 1 36.0835 23.4945 8.15075 0.311216 866040 -324447 188320 149640 -50388.5 9294.59 
213 1 24.9433 26.2312 4.80345 0.249707 -290812 -1.17836e+06 269290 -743109 -26433.9 -122635 
148 1 22.5154 26.8915 5.39642 22.3734 277516 824316 851714 -131976 -142541 474415 
163 1 24.3454 28.5287 5.25361 5.58967 -602564 -326458 -91894.8 201851 731416 -167164 
209 1 24.2785 26.8712 7.16499 6.0898 -211335 268841 483937 -417816 5925.35 228267 
214 1 26.7047 27.951 4.96065 0.343385 -427264 -681737 1.06331e+06 -235859 -98003.2 114092 
215 1 26.7307 26.334 6.84242 0.645551 135633 -392736 371001 -491593 146073 46396.4 
220 1 28.4446 27.9619 6.86964 0.175879 -87676.3 480908 1.13121e+06 -756018 -341789 191755 
210 1 25.9796 28.6014 7.49841 5.2002 517486 -1.03107e+06 1.23152e+06 -267835 123195 124148 
219 1 29.1933 25.4237 6.27282 5.39845 -302191 136229 442577 -649139 -117931 317957 
224 1 30.8408 27.2101 6.32651 5.71746 -257830 -486249 52124.9 -653998 270524 54338.7 
285 1 30.8493 25.4419 8.20078 5.46448 -438414 -495823 26821.3 -394614 185898 95826.8 
223 1 32.4921 25.2547 6.34179 0.477543 -662972 -282707 -14248 -343721 -287197 268219 
3027 1 34.3069 25.2821 8.11681 0.229191 167877 411731 437579 -143648 -352760 66742.7 
2958 1 34.3604 27.0901 6.29858 0.160038 558249 480525 220611 20703 -159280 204142 
225 1 23.3234 29.3082 7.33748 17.8407 593765 800732 -38597.8 -63905.6 121985 166419 
164 1 23.6259 31.0865 5.58399 12.2974 110228 726072 80409.6 -228138 -198971 428763 
226 1 25.2231 30.8983 7.45459 6.53218 -897608 -415554 -1.40863e+06 539316 305206 -251525 
233 1 28.5429 29.5957 4.92878 0.365498 -319435 266445 1.16281e+06 -185446 173278 67412.7 
168 1 26.1421 30.3146 5.35563 0.570533 269538 -8100.73 -28711 67916.1 553044 -459494 
183 1 27.9283 32.0779 5.34442 0.54364 524001 521305 135231 -77645.4 444876 -165575 
229 1 27.6959 30.4385 7.42798 2.60768 523558 87171 1.89116e+06 -473561 -198293 6043.94 
234 1 30.3434 31.3794 5.06209 0.385287 78497.2 -32607.3 850691 -32720.3 -32794.1 74823.4 
235 1 30.2861 29.7132 6.89846 0.354786 58112.7 -7217.02 521461 -459903 115316 237098 
240 1 31.997 31.4177 6.97137 0.213311 -250978 -227809 379906 -670386 -299539 -112358 
230 1 29.4635 32.126 7.55545 3.13698 -193827 -92903.5 1.73365e+06 -618266 -97436.3 91897.7 
3045 1 34.3818 28.8987 8.15992 5.76185 -403957 -710133 278676 -380773 24220.5 77692 
239 1 32.5558 28.932 6.36394 5.9113 -461677 327286 430120 -105860 -132573 -174851 
2976 1 34.4249 30.7876 6.38347 6.14936 534301 384518 294200 -15052.4 -543.68 122365 
3046 1 36.1341 30.517 8.26242 5.7913 -55225.6 -461516 83004.7 -84804.5 -279140 84454.8 
241 1 23.6207 32.8964 7.5181 13.4422 -309480 785581 570124 -379062 22606.8 203836 
180 1 23.5646 34.5269 5.70375 16.2446 11674.4 522291 411460 -20699.7 76032.1 104341 
1497 1 23.5727 36.1067 7.66788 15.0483 -705793 299069 1.04248e+06 578571 -2353.91 28843.1 
245 1 27.0355 32.8005 7.48456 7.98008 -740707 -961746 -1.50178e+06 391161 39714.6 15407.5 
179 1 25.3513 32.7851 5.71008 5.21033 -388072 -41465.7 -278438 -171259 -56092.5 232150 
242 1 25.311 34.5898 7.60865 0.502851 -1.5138e+06 -1.07451e+06 225064 435947 -15677.2 35201.3 
184 1 27.2032 34.6231 5.78355 5.41451 -75645.4 44166.2 -796852 110116 -410878 218973 
246 1 28.8286 34.516 7.53613 7.15784 -867276 -767072 -1.47843e+06 304018 -207092 72993.2 
1435 1 31.5451 35.5572 5.43033 0.56005 -400132 -808981 -183751 -36718.9 371074 -401346 
188 1 29.7555 33.8721 5.38358 0.868978 -354702 144993 235925 16517.9 395466 -453332 
253 1 32.0815 33.2304 5.14516 0.666924 -738244 -458232 1.07788e+06 202015 128251 49242.5 
249 1 31.2818 33.7602 7.60932 4.81014 589689 -447360 1.15868e+06 -193065 -15162.2 394596 
254 1 33.9291 34.942 5.11045 0.259326 -777160 -519083 512861 124267 315535 -280106 
250 1 33.1962 35.5159 7.50326 1.80939 953538 698435 1.68611e+06 176690 145443 -85400.3 
255 1 33.7874 33.117 6.98865 0.0820804 178444 -287000 784568 -252241 -142867 -182779 
2994 1 35.6332 34.87 7.01676 0.229305 62516.3 388366 655889 162061 165066 -260680 
261 1 24.5533 22.8053 8.55065 18.8034 1.4565e+06 588836 1.2788e+06 -131626 134062 156936 
257 1 24.2878 23.5201 10.9741 28.4741 389425 691962 1.2625e+06 -60644.5 29328.3 -87428.5 
196 1 24.2076 25.2206 9.09006 9.71092 395547 622526 1.08246e+06 -130931 257088 -33515.8 
262 1 26.615 24.5027 8.71594 0.379114 241606 -565637 857789 -40824.3 -96162.6 -313246 
263 1 26.5426 22.5825 10.472 19.2116 905329 669507 504992 -93472.1 264733 -74034.1 
268 1 28.4272 24.2944 10.5889 0.15341 -17234.6 -492097 132519 104684 67308.4 -42173.5 
258 1 26.1131 25.121 11.1766 5.22976 -618442 -98811.5 193547 -304539 -139305 30726.2 
267 1 29.0394 21.8479 9.91977 13.7122 920250 349500 847736 -463798 150424 69242.4 
272 1 30.7911 23.5556 9.94868 6.32544 -158439 -300262 30004.3 28389.4 445962 9851.47 
271 1 32.4211 21.6755 9.89071 17.5136 1.64545e+06 339679 1.57518e+06 74737.4 85360.9 154682 
3029 1 36.0985 25.1641 9.90139 0.446957 278040 22898.5 -89951.8 -109438 -238690 -164082 
3012 1 34.2219 23.4873 10.0059 0.51492 167850 378249 720538 44264.1 21314.6 -93913.8 
3011 1 36.0243 21.7006 9.81211 14.7909 1.39941e+06 391610 1.18464e+06 69237.2 265310 341750 
212 1 24.2585 28.4195 9.41451 8.36362 -53760.4 50048.7 539775 625595 136921 533523 
273 1 24.2043 26.6982 11.1131 18.236 606358 1.37781e+06 1.21865e+06 200462 208704 336475 
211 1 26.0714 26.8518 9.27933 5.09044 -718791 -725382 589430 134488 253495 64219.5 
216 1 27.8086 28.5675 9.40585 5.06578 311945 292307 955234 -32226.5 120562 -422960 
281 1 28.4171 26.0996 8.81363 0.454334 -322013 -49586.1 269934 -455250 43696.9 -103387 
277 1 28.0348 26.6396 11.1629 5.43564 -652407 -765221 165940 -411887 243308 -184939 
274 1 26.1647 28.3536 11.4689 0.56246 22367.3 -118954 -197445 -142533 198475 -96830.8 
286 1 32.4854 27.1537 8.3127 6.16861 -603047 -174530 172009 -318293 -215600 -65239.5 
282 1 30.1911 27.8703 8.70842 0.48247 -408980 308458 854549 -5417.12 23037.4 -113220 
283 1 30.3133 25.9578 10.6061 0.198035 -1.15947e+06 -189264 438386 335042 276610 -337822 
288 1 32.0659 27.7998 10.6582 0.250807 -505314 -402961 129287 -110734 120711 -13933 
278 1 29.7458 28.3319 11.3021 6.49043 -380670 -300366 1.11357e+06 -110118 46226.7 -165169 
287 1 32.6449 25.4071 10.161 5.70507 -302096 -59161.4 -108335 488227 209534 -60116.8 
3030 1 34.4451 27.1606 9.93175 5.5691 -343728 -109486 330687 -290053 385163 -84426.2 
228 1 23.5858 30.7905 9.28543 16.4301 -132030 259081 -65252.5 -27592.5 107464 -192838 
289 1 24.281 30.0192 11.5121 10.623 375170 678313 576091 389688 190520 473106 
305 1 23.7464 32.4103 11.1965 14.4036 147440 347519 640332 -167167 156412 376212 
227 1 26.0204 30.2106 9.72618 6.47189 -190580 -153580 274437 214956 -234877 176462 
232 1 27.8262 31.9889 9.66271 5.64509 -216075 5793.52 238123 215783 -370101 226301 
293 1 27.9742 30.0134 11.4231 0.652153 -443023 1305.67 -115884 -83877.3 96595.1 -202252 
290 1 26.1799 31.8545 11.6244 5.89691 51958.9 -35900.9 -104948 -39178.9 -46014.2 -232482 
231 1 29.6774 30.3639 9.46384 5.31524 327277 583434 1.13706e+06 58828.7 203351 -279235 
236 1 31.4292 32.1206 9.34914 4.73329 -66537.6 40536.8 642777 -514202 25822.8 279174 
301 1 32.0098 29.575 8.87782 0.199698 -552429 -424270 714695 -718444 51572.5 82576.5 
297 1 31.4333 30.2043 11.3642 6.04965 398406 373082 643431 -34623.5 23246.6 -524989 
294 1 29.6186 31.949 11.4145 0.296395 188852 -68218.7 233709 143406 -205440 -30579.5 
302 1 33.7274 31.1792 8.81848 0.747948 -285538 -438444 606832 -402787 160756 -186729 
303 1 33.8478 29.4665 10.7088 0.172452 117274 -31841.1 379203 -270114 -121618 173907 
3048 1 35.7293 31.2566 10.7444 0.395767 213410 -272478 519791 40019.2 3445.37 97320.1 
298 1 33.2766 31.9772 11.3224 5.23734 608614 266024 681005 -53715.3 310052 26373.3 
1569 1 23.6823 36.1088 11.3749 17.1622 30533.7 561903 416653 28196.9 -102478 -303020 
244 1 23.7058 34.3873 9.60735 14.5782 -198787 352024 222441 170831 -370253 -215751 
1573 1 27.1422 36.06 11.2346 5.75283 190501 -28175.5 -201535 -178356 -81350 26362.9 
243 1 25.353 32.5875 9.29127 5.31789 -842234 -362488 -285528 181691 194938 -81622 
306 1 25.4051 34.2877 11.2862 5.47227 -1.11468e+06 -15355 -271292 -55762 -595359 35621.8 
248 1 27.1427 34.4005 9.4022 5.77323 -215601 -439606 -709037 -15377.3 -45446 -278211 
309 1 27.8337 33.6911 11.6826 5.93696 -586029 -562768 -566146 168296 77302.3 203998 
247 1 29.5373 33.8351 9.79289 6.70482 -143758 -177103 353155 -6047.69 -365965 636616 
252 1 31.5063 35.435 9.77446 5.79644 686873 251149 120879 227539 -580284 632227 
313 1 31.4707 33.6954 11.5017 0.258233 432897 -143976 219586 39429.2 -58824.3 369605 
251 1 33.2406 33.6798 9.53973 6.06505 170064 94160.3 1.12324e+06 -314066 250467 48737.6 
256 1 35.0733 35.4682 9.53914 5.85834 43636.1 305767 766763 120602 298873 -308764 
3063 1 35.6063 32.9822 8.87685 0.265182 811287 940504 889251 106734 -57099.4 109732 
317 1 35.2364 33.5797 11.458 5.6529 -540152 -675845 586057 -466364 120196 -516610 
314 1 33.4244 35.3374 11.5283 0.371531 96630.2 -115226 93633.1 -279827 -137006 138680 
3081 1 34.4602 21.4231 11.7909 18.111 1.8558e+06 1.242e+06 1.73866e+06 -353734 -75547.6 48197.2 
3083 1 36.0229 21.5209 13.7121 16.1649 869852 136084 978470 -112741 -382931 -239121 
321 1 24.7153 23.1523 14.7696 29.8774 603267 297769 1.02598e+06 -428595 396258 224562 
260 1 24.2622 24.9497 13.1214 17.2617 439256 768460 1.42764e+06 -64059.4 46.9848 18760.1 
322 1 26.0811 25.035 15.0509 1.19283 -210614 -778216 372635 -346221 -69377.9 311581 
259 1 26.1218 23.2899 12.8628 9.17944 -676440 78352.3 176743 5477.85 449739 283392 
325 1 27.7384 23.0939 14.8289 9.94712 694037 601331 1.03203e+06 160523 -25136 171905 
264 1 27.947 24.8937 12.9734 5.15148 -610577 -95938.1 75628.6 -251556 -313787 32758.5 
329 1 28.3056 22.3993 12.2958 18.1665 112589 422287 811172 174475 67199 67540.1 
333 1 30.71 21.7495 11.819 15.7782 650028 46488.3 805445 -142247 31710.5 -31026.8 
335 1 32.4679 21.8319 13.7133 12.5767 1.19699e+06 -382674 1.1143e+06 -305544 57018.3 384301 
326 1 29.6123 24.8659 14.8437 5.13745 -964067 -923522 -71777.5 668114 9961.73 297376 
330 1 30.252 24.1162 12.3811 0.294048 -84035 -226879 199147 195325 224198 123480 
331 1 30.0306 22.4723 14.2056 14.3898 479829 35977.2 846353 -88113.9 399358 152236 
336 1 31.9561 24.1203 14.403 0.516432 -139600 12716.5 402600 218885 -55420.2 -480182 
3082 1 36.0844 23.3723 11.8204 0.266164 87215.1 -63118.5 697492 109625 -381744 -92141.6 
3101 1 36.1217 25.1823 13.6677 5.92712 -672751 -1.05279e+06 71453.1 30427.4 -139627 -122320 
334 1 32.5794 23.4123 11.9022 6.14866 342454 259555 422812 -294263 251029 485021 
3084 1 34.36 23.4312 13.7633 5.9414 -271498 69977.5 103083 -311738 -185719 81501.8 
3099 1 34.4636 25.1935 11.8974 5.49334 -607271 62548.6 -142128 261270 -430679 -214925 
276 1 24.5032 28.365 13.3878 15.4204 -120389 231217 508658 -20218.9 209451 276703 
337 1 24.2622 26.6364 15.1189 19.6143 343711 743222 1.08082e+06 210483 73067.5 455722 
275 1 26.1383 26.5523 13.183 0.353771 -131407 -675395 147758 24745.4 106559 395579 