ITEM: TIMESTEP
13200000
ITEM: NUMBER OF ATOMS
5780
ITEM: BOX BOUNDS pp pp pp
2.9137906157168092e+00 6.9386209384298724e+01
2.9137906157168092e+00 6.9386209384298724e+01
-4.3556791137132231e+00 7.6655679113728766e+01
ITEM: ATOMS id type x y z c_csym c_2[1] c_2[2] c_2[3] c_2[4] c_2[5] c_2[6] 
65 1 21.9106 21.271 -1.23766 42.6111 715899 296017 363707 146184 -115021 -217624 
69 1 25.1265 21.3343 -1.08442 17.6819 932453 584727 520463 232071 -625534 -6276.15 
3 1 23.7208 21.5097 -2.9899 13.4181 516024 189363 352841 -230933 -158266 -164264 
4 1 21.7129 23.0894 -2.90811 14.198 599073 381718 1.04307e+06 29426 -183945 -471413 
81 1 21.5689 24.9711 -1.32284 23.9756 221382 787341 313374 -68694.5 176251 -134450 
66 1 23.5267 23.2245 -1.15483 0.780855 -455051 -250090 -203172 -93424.4 206002 -337642 
8 1 25.1928 23.466 -2.98789 0.469054 -656839 -774935 12738.6 -301079 212173 -515620 
7 1 26.8116 21.5573 -2.98515 16.3548 674152 -134384 785030 -228124 -300859 -6431.76 
73 1 28.454 21.531 -1.08366 16.1519 865602 250334 271298 314470 10958 -363520 
70 1 26.7483 23.3126 -1.02299 0.36295 4468.08 -375231 -1672.93 343887 -196873 -206150 
12 1 28.4252 23.3199 -3.05911 0.707958 -1.3033e+06 -650039 -338753 70422.1 -755310 -18415.5 
11 1 30.2017 21.7421 -2.92801 14.7206 309402 -330858 324917 448722 10218.7 -216032 
77 1 31.9875 21.465 -1.21935 17.5821 967138 1.10155e+06 1.11439e+06 2863.21 -63791.1 39596.4 
74 1 30.2616 23.4498 -1.18875 0.399896 143968 -589230 -118780 -159217 100624 -294744 
16 1 32.0316 23.5304 -3.0002 0.583214 -388238 -222161 -268290 -223074 -27992.6 -133064 
2793 1 35.6257 21.4994 -1.18078 16.736 1.29822e+06 565850 910528 -271233 -238900 -111293 
15 1 33.7717 21.5977 -2.96298 17.9711 1.20182e+06 607131 1.25292e+06 -209695 210605 -141927 
78 1 33.7366 23.43 -1.14944 0.214525 195121 112133 220603 -205428 -353276 -249417 
2724 1 35.5162 23.379 -2.99965 0.278255 30796.4 -771051 303478 108276 -67486.2 -747918 
19 1 23.3399 25.1003 -2.97908 0.422232 -627346 -75168.8 243308 -12661.7 177298 99972.5 
20 1 21.5002 26.8236 -3.1283 23.5736 159823 779655 577051 -3604.89 274873 -212912 
82 1 23.0885 27.0644 -1.18583 6.64348 22065.2 386010 165082 -399929 -114764 400142 
24 1 24.948 26.9174 -3.02262 0.241462 108436 -142620 476633 -260557 -77898.2 -82317.3 
85 1 25.078 25.1878 -1.14299 0.357443 -324185 -306444 -368017 -538792 -129443 -290108 
89 1 28.4835 25.1653 -1.10574 0.100591 -528093 540484 153828 174390 52959 -84118.3 
23 1 26.773 25.2716 -2.98378 0.29734 -500092 -511647 157958 -335323 143089 -261040 
86 1 26.7176 26.9728 -1.08857 0.233049 -50339.4 -206091 208755 -406459 -28304.7 -221127 
28 1 28.4719 27.0978 -3.03637 0.366141 -254043 -337320 59669.8 114771 -318947 188835 
105 1 28.5068 28.7545 -1.10278 0.131942 -143527 -156084 406093 72971.6 5912.1 68873.3 
39 1 26.703 28.7426 -3.04119 0.10225 -392586 -89038.1 552030 332327 288989 -205241 
93 1 31.962 25.1794 -1.15313 0.171129 -749603 -842264 34967.7 -489655 -276881 -149945 
27 1 30.1628 25.178 -2.96361 0.385802 -310783 -216429 -91209.8 58243.7 123420 -107817 
90 1 30.2416 27.0341 -1.11517 0.111305 -43757.7 -411184 209691 107110 285673 169561 
32 1 31.9232 26.9206 -3.00733 0.287579 85494.3 -193924 95325.6 -24818.7 -6881.42 338676 
109 1 31.9903 28.7627 -1.11183 0.173956 -777596 -452198 -226083 154069 -386435 -195554 
2811 1 35.4312 25.1594 -1.20611 0.260469 -703941 -595252 51686.2 -112053 215668 113340 
31 1 33.8058 25.1817 -3.14629 0.665967 -737042 -612105 -128772 -569081 30688.9 -4113.1 
94 1 33.6395 26.8862 -1.12881 0.303212 -596509 -505829 -46223.5 -153979 149725 -30233.7 
2742 1 35.431 26.9686 -2.92916 0.435756 -497336 -528421 89982.1 -280125 -359923 -134563 
2829 1 35.4752 28.6507 -1.06428 0.273114 -424041 -396660 296945 338435 -13865.9 -212844 
35 1 23.0664 28.7709 -2.99242 6.02335 -92041 56737.3 291680 -120191 -338678 550842 
101 1 24.832 28.7718 -1.26184 6.20979 219914 -425426 457692 -338758 -146179 38390.4 
97 1 22.3714 29.4313 -0.559927 15.1488 442504 927269 1.32157e+06 -321409 101657 -215921 
36 1 22.4481 31.1462 -2.54379 14.3322 587696 880500 1.23704e+06 -33893.2 32487 -36986.8 
98 1 24.19 31.0516 -0.629463 5.27735 -480334 -753961 838432 -116490 -50951.5 -43914.9 
40 1 24.91 30.4901 -3.09063 6.46787 -8481.25 -300701 199418 -470160 196311 150618 
102 1 26.6966 30.5385 -1.08387 5.40304 -30585.2 -368497 490.732 80450.7 -45426.3 16388.5 
44 1 28.4635 30.536 -3.00083 0.0722979 127405 243859 572949 -46056.3 -122680 -176478 
121 1 28.4293 32.3124 -1.12287 6.00554 -62835 -163483 -572872 -364362 37146.2 74898 
55 1 26.6157 32.2576 -2.96824 5.43528 237205 -81304.6 2743.45 -186770 -17042.2 -205065 
43 1 30.3204 28.8023 -2.97204 0.325642 -45144.5 79665.8 180035 224468 -117316 -186641 
106 1 30.2747 30.5006 -1.17284 0.264013 -313336 -249656 41142.4 16898.1 -379504 -78166.9 
48 1 32.1428 30.6315 -2.90879 0.816681 -482374 -402199 88494.5 40282.2 171847 -391698 
125 1 32.0874 32.2622 -1.11857 0.198774 -457806 -716206 -872498 40008.3 -7507.68 10690.6 
59 1 30.2497 32.3255 -2.9471 0.154944 -183703 -438074 91780.6 -35143.8 36602.1 -341323 
47 1 33.7057 28.7708 -3.01191 0.342831 -258186 -202300 85445.8 340055 -415215 -321308 
2760 1 35.5809 30.4533 -3.09974 0.57703 77267.3 208631 339600 1400.53 177088 20428.1 
110 1 33.8747 30.4625 -1.12209 0.537189 -570335 -929095 -282686 -17192.6 -456802 52590.9 
2847 1 35.4439 32.3059 -1.04122 0.389769 -754360 -413194 -361865 62280.4 -349582 -93923.7 
63 1 33.8665 32.3227 -2.88946 0.617016 -339762 -258506 163381 -306411 -53544.4 6783.35 
51 1 24.1335 32.9811 -2.33287 6.21076 18825.6 546493 256825 -257225 169132 -113487 
52 1 22.4038 34.8643 -2.37255 15.6216 -100238 784950 919090 -325808 188857 -432748 
114 1 24.2657 34.7611 -0.59938 0.612 -140251 -87569.8 133502 -477976 -189919 -587060 
113 1 22.5745 32.8766 -0.484107 15.0446 -128860 1.06059e+06 490155 208350 254838 -173817 
49 1 22.3459 33.0061 -4.28033 16.2326 633317 712476 970642 -300053 -6901.86 745862 
50 1 24.0714 34.7793 -4.257 5.25663 -453946 277032 -288184 -221460 -208775 -150162 
117 1 25.9185 32.7921 -0.549848 5.64644 117055 -247439 -25098.8 92927.5 -305170 154155 
56 1 26.0117 34.757 -2.45942 5.28821 137723 124148 -402543 -398879 245922 -406623 
118 1 27.7811 34.7224 -0.58157 5.42452 237956 -116957 231319 240053 -114267 105643 
60 1 28.4796 34.0276 -2.94433 5.23466 100990 -141810 5963.68 152122 109294 128578 
122 1 30.2951 33.9941 -1.09717 5.57039 -148246 -308455 -29619.2 -426151 49294.5 98473.7 
64 1 32.0322 34.0287 -2.92286 0.291882 -289713 -404764 -337930 -274647 198940 -231509 
1291 1 30.2069 35.8633 -3.0173 6.2617 -181601 -522567 -82224.3 -207473 -346421 -78006.7 
1365 1 31.9591 35.7661 -1.20338 5.77416 -442958 -756541 155707 -219756 55419 -366199 
2778 1 35.6011 34.1488 -2.99308 0.307278 -477055 -386485 234587 19674.3 -120827 134606 
126 1 33.7747 34.1187 -1.10847 0.176772 -623721 -763040 -391807 347250 -353428 -343340 
4242 1 35.6324 35.8609 -1.12797 0.162067 -614193 -250445 -100766 -74062.5 215627 19469.9 
1295 1 33.7669 35.8328 -2.9862 0.0880495 -252886 -751883 -640642 309721 232260 -310259 
67 1 23.3156 21.3689 0.747816 24.5424 756696 754596 1.1173e+06 170047 -67892.3 -52433.3 
68 1 21.5692 23.067 0.305361 32.1616 516868 2613.77 860912 310372 414528 51396.5 
130 1 23.1634 23.3632 2.43168 8.44114 25878.8 482973 1.42044e+06 -360080 368364 111767 
133 1 24.9991 21.6 2.70019 17.8522 903201 605101 1.09491e+06 -26549.9 33029.6 143862 
72 1 25.0412 23.2931 0.813161 0.51914 -400702 -397033 -413360 81690.9 114440 -198417 
71 1 26.7627 21.5493 0.809013 16.2095 583124 -253367 798341 -108131 86979.1 55957.7 
137 1 28.551 21.57 2.77263 16.3902 1.4393e+06 354309 1.39164e+06 -46413.3 -253030 23608.3 
134 1 26.8352 23.3919 2.58138 0.461207 246111 -188875 -105230 -62991.8 -201009 -67137 
76 1 28.5493 23.1991 0.725575 0.842296 -94583.6 -249988 195746 -125103 -120517 -313987 
141 1 31.7831 21.6193 2.58157 14.8054 672764 -330948 952411 386102 -537870 348245 
75 1 30.2935 21.4957 0.671125 16.2864 524418 104602 965566 14728 -555804 -24284.6 
138 1 30.2467 23.3921 2.61585 0.197314 -926680 -1.08035e+06 494120 468266 249925 -150153 
80 1 31.8913 23.339 0.785308 0.304257 22285.6 -270187 254694 -174801 62381.5 323675 
2865 1 35.3411 21.6271 2.68069 16.6892 1.27154e+06 356456 1.41885e+06 288420 173124 -141973 
79 1 33.6557 21.5624 0.689112 16.4956 1.39458e+06 501431 1.68749e+06 -42450.4 -258168 54342.4 
2796 1 35.4517 23.2771 0.660221 0.427862 26712.4 -16252.1 489953 174354 12645.8 -126046 
142 1 33.5973 23.3172 2.69223 0.346216 -364423 -622169 257336 222696 -304690 64226.6 
2883 1 35.4617 24.9951 2.5467 0.663455 -178297 -163663 370950 -203495 92969.6 346706 
83 1 23.1626 25.1038 0.534422 5.34132 18680.7 502520 266130 -154681 -147060 80006.5 
149 1 24.8638 25.0999 2.42529 5.32431 -531059 -417856 -109345 -568914 4249.85 -29645.8 
145 1 22.5402 25.8253 2.95305 14.4746 178673 389441 521846 -165880 64745.4 340324 
84 1 22.5231 27.5431 1.25353 13.9757 -231851 820252 714415 -148154 62542 416732 
146 1 24.2255 27.621 3.13119 5.53279 -500089 -317523 -15312.5 -436895 -182767 260572 
88 1 24.8227 27.0092 0.619306 5.30346 -275512 116144 441867 -143193 75967.1 -226282 
87 1 26.7301 25.1081 0.691967 0.273853 328522 141699 -260115 -432644 164463 -138039 
153 1 28.6001 25.1623 2.72134 0.859108 -419559 -438799 549367 -451525 43090 254413 
150 1 26.5821 26.8604 2.58318 5.49243 608464 210630 624739 -107929 98200.5 52324.7 
92 1 28.4487 27.0102 0.773911 0.158633 -297383 -122499 190282 169994 -288271 -52605.5 
103 1 26.6635 28.7318 0.751494 6.24351 -20626.1 -366047 344094 -90054.6 -64808.9 -103801 
157 1 31.9241 25.1454 2.66236 0.189897 -326316 -491266 -7656.6 -595057 200718 115523 
91 1 30.1961 25.24 0.674251 0.497096 186368 401460 266614 279898 -101239 43206.9 
154 1 30.078 27.0226 2.67021 0.623691 31287.7 -407575 541971 -681395 -217604 160180 
96 1 32.0711 26.962 0.8571 0.763091 -510907 -877937 -56405.9 -322191 -153991 -176846 
107 1 30.2227 28.763 0.787036 0.0989476 112469 127238 -102513 -572968 80401.3 30464.7 
173 1 31.953 28.6457 2.68048 0.316815 65797.2 76148.4 393059 -201118 -43794.7 -320850 
95 1 33.674 25.135 0.69766 0.184104 -328346 -447352 68824.1 -62994.4 -179995 -222624 
2814 1 35.3716 26.8723 0.810145 0.409761 -166004 134249 364339 -179485 -125332 347023 
158 1 33.6765 26.8236 2.67746 0.386202 -694855 87325 -475646 -112903 -71255.7 251184 
111 1 33.6747 28.6788 0.704473 0.370365 -789000 -577736 -43564.8 -392523 -232193 23264.9 
161 1 22.3623 29.329 3.27304 16.8582 450289 1.43251e+06 1.42209e+06 22884.1 -228348 152790 
99 1 24.2249 29.3427 1.33977 6.32497 -30033 -386600 582158 -72055 -202351 197695 
100 1 22.4146 31.0603 1.35255 18.0165 297606 1.00324e+06 1.14445e+06 -111599 -89767.6 -28585.5 
162 1 24.2335 31.0484 3.22176 0.125477 -218389 -41709.8 105938 186951 -176359 122399 
169 1 28.3426 28.8152 2.59158 6.034 -340899 -539444 407537 328649 -15731.2 -223155 
104 1 25.9794 31.1505 1.26083 5.17957 -1.07813e+06 -612224 55442.4 120450 288932 237839 
165 1 25.9941 29.3222 3.18008 6.39346 -530146 -395473 173141 -93302.3 -6441.68 76471.1 
166 1 27.7844 31.104 3.17416 5.98141 -566585 -711850 -302692 168638 335.69 -153814 
108 1 28.3015 30.5953 0.787974 6.48087 -373738 -841132 -204435 114505 -273013 -82235.1 
170 1 30.1509 30.5431 2.60034 6.00666 -10960.8 16282.4 428841 -354968 130458 -254385 
112 1 31.9604 30.5275 0.665757 0.2332 -268128 -403837 112856 -210353 -311104 -124615 
189 1 31.8866 32.2936 2.61463 6.18443 -208803 -563291 473866 -11906.5 -89188.9 72561.1 
123 1 30.239 32.3448 0.726421 5.94957 131177 -82169.1 331650 31969.6 -221514 376939 
2901 1 35.296 28.8712 2.63914 1.15579 80237.4 -139862 177588 243165 -270490 123991 
174 1 33.6085 30.5198 2.64358 0.25327 -610802 -296624 493360 624931 344526 93566.7 
2832 1 35.4351 30.5391 0.835359 0.267145 -501243 -635521 -595474 387180 -144227 291044 
2919 1 35.4666 32.2773 2.64403 0.053468 -164002 -295273 -56449.7 62182 -249555 -400402 
127 1 33.7206 32.2629 0.753596 0.127691 -787527 -467301 -211126 236673 -59677.2 -71755 
177 1 22.4596 32.8302 3.35877 16.98 96103.3 862467 1.26216e+06 -295660 -144825 265929 
115 1 24.1857 32.7622 1.38559 0.409755 -428329 359712 621802 320447 -190151 58239.7 
116 1 22.4146 34.574 1.33343 16.9301 380055 1.20938e+06 1.37678e+06 -102506 -150662 -364640 
178 1 24.0826 34.6131 3.26014 0.483928 -541863 -253654 1.04606e+06 -94732.3 -94818.3 79120.6 
181 1 26.0163 32.8593 3.29924 0.305475 -176294 -331081 505115 -682436 -27160.7 11447.8 
119 1 27.7159 32.8536 1.1794 4.97289 66124.7 -887401 293168 -72148.4 15374.8 -182405 
120 1 25.9517 34.6952 1.32004 0.331843 474463 244648 302450 241197 -239427 -136369 
182 1 27.6636 34.5233 3.26458 0.616236 -330855 -188017 821552 -13332.3 72010.2 306717 
185 1 29.497 32.9108 3.26704 5.99757 -462003 -343397 477400 20502.7 332575 138752 
124 1 29.4889 34.6793 1.35366 5.82047 -22786.2 -169756 556414 186784 -202116 -155416 
186 1 31.2946 34.6358 3.16179 5.27294 -240187 -356800 70449.3 286957 177598 -69513.8 
128 1 32.0253 34.0755 0.815148 5.42335 -386246 -594707 -262281 -44732.2 -300133 16341 
2850 1 35.505 34.0735 0.721779 0.0356078 -612792 -809218 -287196 540537 -188866 -399400 
190 1 33.7116 34.0719 2.55848 6.57672 -631460 -204546 -224381 -47636.6 -457539 -79014.2 
1367 1 33.8299 35.8055 0.684178 6.39681 -212935 -575016 -59851.7 141677 -34110.4 -93099.3 
4323 1 35.5552 35.7733 2.54169 6.02578 -338718 -341215 244953 3356.41 3488.39 -208046 
131 1 23.3024 21.7011 4.55381 32.0681 531373 933913 1.03419e+06 -132261 -270464 78022.5 
129 1 22.5678 24.221 4.89035 17.0046 -570297 814909 38530.8 -327963 283462 -11685.8 
193 1 22.4421 22.5933 6.74912 43.6436 433167 400224 915658 -192692 68935.1 197069 
194 1 24.1936 24.2369 6.90577 0.633969 -1.37529e+06 -250768 484675 -296163 292434 -86432 
197 1 24.8486 21.8517 6.39233 14.734 532172 452615 759647 -147168 -366375 -81386.1 
136 1 24.8575 23.607 4.34237 5.65371 -625677 -1.16178e+06 784584 -274748 57043.2 76854.6 
135 1 26.6841 21.8672 4.61222 14.8792 988877 172223 1.0313e+06 -189877 -96277.1 201680 
201 1 28.2545 21.7935 6.62552 16.3892 651348 204632 1.00546e+06 -422928 -111985 -105139 
198 1 26.5572 23.7253 6.4623 6.41669 -52559.2 -1.28844e+06 536022 76834.2 39983.7 -23893.9 
140 1 28.5321 23.4427 4.55818 0.402053 -540861 -954222 251765 174949 -461780 239396 
205 1 31.8798 21.7612 6.48202 15.3878 524944 44799 1.06679e+06 -433238 -405180 -6474.56 
139 1 30.1252 21.6992 4.7423 15.4361 710928 -205476 1.06301e+06 466918 -605038 -192486 
202 1 30.0057 23.4441 6.54493 0.67096 -237313 -510925 146216 -94119.1 -81145 -86043.3 
144 1 31.9131 23.4873 4.59477 0.339205 -134950 -495257 383180 274627 -16182.9 275119 
2937 1 35.4631 21.5723 6.61147 17.5702 1.3283e+06 555737 1.61294e+06 -240432 -164536 -59806.8 
143 1 33.5735 21.5949 4.46665 17.2677 1.41341e+06 409551 1.2681e+06 16099.9 316518 309980 
2868 1 35.369 23.3913 4.48872 0.404941 44769 -457331 609034 600355 -167759 -153201 
206 1 33.6374 23.3456 6.53384 0.265566 -33950.5 -214559 1.41406e+06 -181468 -180672 118505 
132 1 21.9284 25.0817 7.00117 35.6915 193210 916774 545243 99681.7 101665 -612460 
147 1 24.3203 25.8851 4.93317 4.13199 -449550 -1.01285e+06 529960 -84717.7 -93072.4 -38195.1 
148 1 22.3944 27.381 4.9492 13.4369 391608 1.66068e+06 1.39811e+06 339956 36471.3 -240586 
209 1 23.6358 26.8143 7.1802 5.7654 3199.87 567088 890984 -246824 165281 -266681 
217 1 28.4244 25.3377 6.35837 5.8989 -185698 -271869 503650 -445309 -1997.26 506366 
151 1 26.7026 25.1389 4.39477 6.11492 -443263 -353127 254272 -371786 123677 264537 
210 1 25.2743 28.6498 7.41747 6.99163 309089 -148360 1.51515e+06 -878207 -87915.6 -134872 
152 1 26.0413 27.6251 5.00304 4.22956 -629023 282378 541613 -87855.4 -82802.4 337582 
213 1 25.9789 25.9315 6.94423 0.635139 -196256 -974762 431857 -29294 -350467 -61828.8 
214 1 27.6382 27.829 7.01169 0.5817 187661 -255206 88445.4 -433172 -71714.8 224095 
156 1 28.3154 27.0525 4.61178 5.70914 -295610 5644.07 777351 -14336.3 287573 181945 
155 1 30.2753 25.2334 4.52308 0.565485 -674081 -75.3168 199243 -151252 -72667.3 25409.8 
221 1 31.9763 25.1024 6.5579 0.575301 -8539.29 -32064.5 530652 -33514.9 -297566 -107585 
218 1 30.2031 26.9952 6.51011 5.39123 530094 62063 700710 -617859 -333084 82638.6 
160 1 32.0416 26.8866 4.55484 0.469569 -277308 29092.6 400123 -644845 -91298.4 9368.29 
2955 1 35.408 25.1783 6.41499 0.222095 -97546.4 -75989.9 526137 248813 -261815 -228772 
159 1 33.7837 25.0961 4.4889 0.573725 -694477 -1.06528e+06 192244 468314 -265554 -51593.2 
2886 1 35.4143 26.9679 4.53368 0.244394 -363787 -57234.1 734680 -438956 -11507.3 162409 
222 1 33.6217 26.87 6.43777 0.487247 -105340 23461.8 216210 -132640 -222463 244280 
175 1 33.6645 28.7129 4.67268 0.544152 -339808 -171570 447295 69106.8 -353726 75304.4 
225 1 22.4832 29.1698 6.91124 12.3947 881400 1.60338e+06 1.24853e+06 -101800 387491 217950 
163 1 24.1294 29.2814 5.06293 2.09731 -215962 531100 361441 304160 338134 -276271 
164 1 22.5103 31.1239 5.17162 16.3649 185798 488976 1.05792e+06 -39023.4 61119.9 100958 
226 1 24.3835 30.9218 7.01777 5.4733 551184 482935 601041 -70961.2 150902 -76484.5 
167 1 27.7784 29.46 5.08301 3.26931 -511817 -667420 89651.2 -129385 83597.1 229749 
168 1 25.9523 31.0836 5.05556 3.88805 -135814 15461.9 -101142 572427 66064.9 -54879.9 
229 1 26.9589 30.2711 7.30041 5.23611 271713 -143293 1.10874e+06 -1.02818e+06 64620.6 -224252 
230 1 28.6541 32.0046 7.43255 6.72872 604556 294573 988188 -563678 51767.4 -101266 
171 1 30.1616 28.7755 4.55352 5.83194 459763 -30602.6 982309 -164437 270085 -241128 
237 1 31.8968 28.8309 6.57488 5.45009 275318 605969 748184 -144450 -7361.06 411016 
172 1 29.5184 31.076 5.00472 4.15054 -424005 -860836 491525 -103205 -229713 42434 
234 1 31.1217 31.2893 7.03575 0.680471 373566 -28297.4 323614 -144416 -310303 211997 
233 1 29.5025 29.3862 7.064 0.667991 158285 305892 933026 -553169 12108.6 242871 
176 1 31.9827 30.5091 4.52686 5.96268 -249106 -84879.9 481431 -52885.2 -30711.1 10213.3 
2973 1 35.3179 28.8408 6.47355 0.412154 -35503.4 509649 -4077.5 -193149 -397601 11718 
238 1 33.637 30.7248 6.36355 5.55786 130693 -209716 -130330 -306095 -142079 153696 
2904 1 35.4876 30.4996 4.52664 0.341802 -147280 -333130 -235877 -41497.5 -39857.5 -149100 
191 1 33.6787 32.3567 4.55867 5.91772 -398351 -904719 165991 -440932 88433.8 283813 
2991 1 35.4532 32.3523 6.36457 5.75942 -313122 -392758 498439 -574311 -316601 186432 
241 1 22.4774 32.7899 7.08522 17.2351 707051 1.45152e+06 1.24734e+06 -357490 148983 -488633 
179 1 24.2335 32.8384 5.14369 0.118909 -806603 -50032.5 534991 -590811 -184525 -88266.3 
180 1 22.3629 34.6943 5.25833 16.1222 914040 1.59558e+06 1.38836e+06 -150994 74297.7 3263.96 
242 1 24.2848 34.4893 7.15552 0.15326 -233955 428263 585854 -19038.9 148521 -245085 
245 1 26.0607 32.7803 6.97063 5.53313 618871 -99224.4 90330.4 38572.8 91275.7 -45097.7 
183 1 27.8319 32.8329 5.13956 3.36424 26770.2 40386.7 -309617 422792 238812 -281310 
184 1 25.9617 34.5051 5.22766 0.49313 103206 -511148 237415 199322 371384 -50471.2 
246 1 28.1405 34.4472 6.95632 6.31261 28204.3 -193066 -383276 -295735 545292 -251384 
188 1 29.6235 34.6859 5.15216 4.10596 -203466 -117578 -465870 301135 962401 12990.2 
187 1 31.2889 32.8685 5.1355 4.11908 -66894.3 65557.4 -235855 208129 -221222 81831.1 
249 1 30.5218 33.6934 7.37303 5.67789 -511670 -138256 512792 -378602 79066.2 -178239 
250 1 32.1936 35.4084 7.4221 6.42855 461562 -550605 1.11952e+06 -593840 251114 -217735 
2922 1 35.395 34.0405 4.43732 5.732 -715853 -268461 300845 -263286 -118901 -81603.9 
192 1 33.1148 34.7077 5.03622 3.75224 -234387 -291857 292732 359454 -924.454 231826 
253 1 32.9276 33.1176 6.93926 0.439002 -223589 -554830 -140821 50601.5 -266273 33241.9 
254 1 34.7486 34.8437 6.95682 0.352299 -161629 175793 612296 -334525 -88595.7 158202 
195 1 24.061 22.4721 8.83098 25.6358 506247 1.01092e+06 797847 86985.4 305493 -126144 
257 1 23.538 23.3473 11.0166 32.5163 -351804 408372 1.08774e+06 -310371 85682.2 -291124 
199 1 26.429 21.9382 8.34131 13.5061 302897 261851 384989 -84686.3 210257 -66826.2 
262 1 27.6308 24.2916 10.8269 0.276136 227311 -224493 533450 447013 308103 -356286 
261 1 25.7772 22.4952 10.6916 18.3606 -185658 77570 552255 248121 316602 56175.7 
200 1 25.8738 24.3379 8.92324 0.518754 -534.404 -225362 105609 -124950 168816 28723.3 
265 1 28.1464 21.932 10.2112 13.1305 160206 -250141 816942 -406411 115425 -68917.6 
204 1 28.2437 23.6936 8.32118 5.73999 -199802 -404219 146648 -241130 1530.92 -125201 
258 1 25.2464 24.9071 11.2557 6.45864 -846761 -552326 252437 -523028 349227 -459016 
203 1 30.005 21.7406 8.43581 17.7202 972734 217899 958665 -420981 -296827 -29174.7 
266 1 29.9506 23.527 10.2352 5.94844 42406.9 -265092 344819 -283781 256857 354260 
269 1 31.7001 21.692 10.3353 17.9987 1.03794e+06 350499 898031 -39161.1 224443 205966 
208 1 31.807 23.3742 8.48002 0.352354 -327859 -620253 314517 -27704 -187102 195914 
3009 1 35.331 21.6852 10.2911 16.9911 1.08573e+06 415246 1.22095e+06 174173 -95266.4 294704 
207 1 33.5076 21.6512 8.52466 16.9616 953167 -28916 927217 235973 -245651 -315875 
2940 1 35.348 23.4156 8.50158 0.302256 393252 -359862 228512 -24999.2 186272 -339881 
270 1 33.5513 23.4202 10.259 0.262485 -71169.4 -302942 -7259.21 91321.1 287927 -197295 
196 1 23.4826 25.1677 9.07938 8.38049 424935 1.40505e+06 998612 -227296 387317 -173181 
212 1 23.2676 28.3179 9.19125 9.95165 939507 1.52237e+06 1.29781e+06 224653 79432.7 169426 
273 1 23.4565 26.7121 11.1176 15.7979 143896 584468 170884 -309711 -121597 203701 
274 1 25.1748 28.4484 11.1861 0.119853 378945 42107.7 477423 -468324 330400 178053 
211 1 25.317 26.7964 9.31046 4.9518 -622427 85924.2 695507 -177128 41567.5 -560298 
215 1 27.6077 26.0434 8.80766 0.515448 -391190 -442656 155500 -233762 150692 -181522 
216 1 27.069 28.5492 9.3497 5.2916 -55111.2 273530 532937 -473571 -89499.1 -92172.7 
277 1 27.1014 26.6729 11.1231 5.84973 107186 -62101.7 271874 12733.4 -46440.7 -60939.7 
278 1 28.7825 28.4979 11.2422 4.7536 449206 -405740 -23026.4 -535032 -202916 -328186 
285 1 31.8381 25.3048 10.3086 6.02546 -232230 127660 -268139 299017 123813 -293776 
219 1 30.121 25.3164 8.38825 6.36229 488815 115987 806372 -369595 -101399 306855 
220 1 29.4546 27.7202 8.92407 0.20253 419491 287400 589944 -141509 139043 107618 
281 1 29.5349 26.0998 10.9673 1.49163 -518699 448620 500253 284112 305054 5061.67 
282 1 31.4116 27.6886 10.7783 0.757656 126483 -505911 465849 -541709 195503 49961.2 
224 1 31.9041 27.0804 8.34571 5.74206 -326245 -208600 143288 -182884 -54026.8 196697 
3027 1 35.4036 25.1753 10.2359 0.275082 -196802 -337185 -4411.13 -141329 -53087.6 -169996 
223 1 33.5345 25.2317 8.48489 0.674977 -236935 -234478 -2351.09 -135641 -342193 45558.9 
2958 1 35.3901 26.8583 8.32664 0.645309 -123128 185014 310379 114954 361247 71385.2 
286 1 33.7591 27.0245 10.2278 5.70993 -327697 -191392 43458.6 54561.7 67791.5 20659.9 
228 1 22.6085 30.7897 8.94864 14.6856 574535 1.37908e+06 1.35049e+06 -235060 -7799.75 175815 
289 1 23.2302 30.1205 11.2621 9.84634 481332 743419 999138 -94846.2 -121082 296361 
290 1 24.9439 31.9262 11.3405 5.59702 -770002 -9960.49 304531 320259 -185763 130336 
227 1 25.1127 30.2527 9.36978 5.73833 920016 253122 583508 45242.2 -206026 56843.2 
232 1 26.9132 31.9493 9.3291 4.85567 476009 113582 777634 -284308 -8937.35 -146191 
293 1 26.8991 30.3162 11.3432 0.562944 301610 377044 774797 -391776 -69110.4 -203729 
294 1 28.7305 31.8923 11.3254 0.287651 -415795 -330688 290523 -11331.2 -245304 -224225 
231 1 28.7797 30.28 9.45359 5.22827 177021 3849.69 731975 -400933 -51728.2 -94260.3 
235 1 31.245 29.5097 9.05121 0.653955 208041 221273 159643 -377677 166719 42740.5 
236 1 30.5387 32.036 9.37564 5.20496 -260757 -203793 581535 -618329 -8515.53 -237637 
297 1 30.5686 30.1598 11.3009 5.37405 -228296 350592 -222743 -149887 109880 -127081 
298 1 32.3949 32.0043 11.1769 5.09125 610955 619397 889124 -220397 -357131 289864 
3045 1 35.4189 28.8716 10.2837 5.80162 -745372 -527997 225853 -218660 -56124 -8283.42 
239 1 33.6741 28.7959 8.3573 5.73779 86465.1 393188 723340 -336741 -102010 63882.9 
240 1 32.9411 31.2174 8.7305 0.818251 -196323 218924 604973 -391167 90739.2 -159937 
302 1 34.8276 31.2619 10.7837 0.320946 -1.07307e+06 -599157 604151 -461507 502097 -73796.7 
301 1 33.058 29.4959 10.8709 0.380285 -482490 401479 251809 -382828 -166147 -280683 
2976 1 35.3647 30.6645 8.31071 5.92166 -396774 -356979 332328 123458 -116755 -86231.6 
305 1 22.7165 32.571 10.9495 13.6434 -954993 642586 44255.7 155048 -103559 640049 
243 1 24.333 32.5958 9.02443 5.53328 182647 -97227.2 286329 -15916 107493 -174967 
244 1 22.5123 34.3216 9.02611 16.7627 570894 1.00555e+06 859844 144502 65700.5 -447536 
306 1 24.4563 34.3383 10.8028 5.63446 420204 -2501.3 565188 -467197 -3507.27 42634.1 
1569 1 22.5142 36.1246 10.7377 15.2203 645184 1.22553e+06 1.14258e+06 -83685.7 276499 280257 
248 1 26.1365 34.366 8.88531 6.03682 431960 -10599.4 329844 -283811 -195101 -4628.46 
309 1 26.9497 33.5606 11.246 5.36998 754746 278487 844264 322453 -55697.3 -175703 
247 1 28.6893 33.6963 9.31057 5.0049 63500.7 -349706 661017 -163359 -45905.2 -9648.46 
310 1 28.6678 35.452 11.3674 5.83238 102654 539952 918382 141370 -312368 199595 
1573 1 26.2638 36.056 10.9204 5.88818 272675 228329 354298 -428973 -79791.6 5451.69 
1503 1 27.9914 36.0328 8.99019 5.8394 337219 366805 467898 -73585.7 -91124.4 100646 
252 1 30.4549 35.416 9.32341 5.07842 -211275 -254069 796820 -226252 -73144.6 278000 
313 1 30.4498 33.7629 11.2985 0.204895 190054 171660 449534 -58629.1 154201 -13109 
314 1 32.2787 35.4344 11.2073 0.279102 37081.8 13387.8 561415 -299933 160307 107930 
251 1 32.2454 33.6718 9.35227 5.85763 -105423 -358287 279392 -372907 109022 263653 
317 1 34.1198 33.7522 11.3034 5.53329 -144268 18377.1 936574 -353906 -37102.3 -104331 
318 1 35.8653 35.4608 11.3835 5.82358 658497 377760 322953 -299880 379654 -4147.82 
255 1 34.6829 33.0438 8.84512 0.141204 60982.1 14735.4 875204 -394847 -149713 -192774 
256 1 34.0591 35.494 9.37242 4.96791 -91717.7 -157369 468490 48622.3 234656 2105 
321 1 23.2273 24.0753 15.121 25.7986 -54686 -26826.4 405215 -442697 -136311 476907 
259 1 25.2437 23.2547 13.1518 10.5005 583328 461650 1.17384e+06 -425079 -412981 199288 
325 1 26.8724 23.273 15.0053 9.91027 393268 -99849.4 622559 122329 -196702 11765.4 
263 1 27.5934 22.4714 12.6426 17.6568 293789 482830 964512 133504 400961 25442.3 
264 1 27.0411 24.9565 13.1325 5.23363 -208956 -129142 -452615 -483594 238000 -210321 
326 1 28.7375 24.9688 15.047 4.93147 -590207 -239507 88611 247191 360265 -100653 
267 1 29.9061 21.9497 12.089 12.7253 336746 -760243 738866 162132 401558 129301 
330 1 31.1136 24.1544 14.5616 0.370214 -199316 -1.08681e+06 -141716 86599.2 -221993 -292390 
268 1 29.5276 24.1881 12.7399 0.74841 154484 -677553 135773 -115729 -240476 -290571 
329 1 29.2844 22.5157 14.6694 15.8129 107822 55363.9 819340 -215252 69244.5 255396 
272 1 31.965 23.4883 12.2099 5.62201 -210637 -992658 -66234.2 -74394.9 315358 254012 
333 1 31.6522 21.937 14.0652 12.3817 515413 -954752 168828 132479 102113 87498.3 
335 1 33.4658 21.9304 15.7095 12.189 240517 -861875 412687 -320871 246170 328595 
271 1 33.5957 21.6656 12.2523 16.6703 891986 456707 1.3369e+06 274568 -428480 30948.1 
3012 1 35.4411 23.4788 12.2595 0.432968 263538 -139066 582318 -185630 31186.9 211604 
3081 1 35.2576 21.6743 13.9754 17.8409 726201 339951 624426 -66058.5 -39632.1 180340 
334 1 33.5989 23.6286 14.0506 5.47101 -108056 -1.06345e+06 -535981 -184276 -481027 423900 
3084 1 35.3042 23.5186 15.8244 6.28302 -159626 -368811 -162003 -657061 -2324.1 -72311 
260 1 23.3886 25.1324 12.9866 19.2889 364770 534809 151279 -482734 233012 726541 
337 1 23.2814 26.5631 15.1127 14.7854 679696 808718 1.31671e+06 233585 -84747.7 -173610 
276 1 23.3881 28.3335 13.027 15.9596 -200200 914761 1.3447e+06 -89079.3 80403.8 -56582.7 
322 1 25.3002 25.1341 14.8853 2.03114 -1.82491e+06 -1.57655e+06 -136020 -922303 387342 50141.4 
338 1 25.1021 28.4596 15.0901 0.315569 1.09681e+06 1.34764e+06 1.27963e+06 -72531 -7746.67 521301 
275 1 25.2119 26.7407 12.9781 0.533342 -328047 -403041 518416 -157616 -305468 388175 
280 1 26.9972 28.4181 13.1881 0.264393 335751 124341 1.05202e+06 -355087 109100 -87865.6 
341 1 27.034 26.6489 15.0529 0.237807 -995858 -470457 304400 -517229 140592 -13632.3 
342 1 28.8901 28.3682 15.1941 0.736421 341990 -438218 24111.2 -67742.6 23491.2 107727 
279 1 28.778 26.6905 13.213 5.33121 25038.1 4944.1 -94208.5 -380232 392260 -45931.5 
283 1 31.3361 25.8605 12.6627 0.601512 -731573 -204542 -263970 -101743 87385.6 -190815 
284 1 30.6063 28.3464 13.1248 5.06426 176971 76622.4 767917 -235718 84874.4 17377.3 
345 1 30.5946 26.6242 15.0967 5.96713 -69887.1 84635.9 1.0162e+06 65493 82001.9 -136916 
346 1 32.4248 28.3748 15.0959 6.14083 -360594 152902 260670 174600 81345.8 -241193 
3099 1 35.4683 25.3462 14.0356 5.58414 -171860 -96997.9 -56499.2 -514874 15517.8 214196 
287 1 33.6021 25.2908 12.0757 6.28311 -816944 -339444 482545 -356918 161383 76677.2 
3030 1 35.3857 27.0417 12.1425 5.89225 -861801 129208 -318410 104536 159127 281899 
349 1 33.0065 25.9814 14.6365 0.203733 253267 32084.2 385972 335566 -284079 1393.14 
288 1 33.0944 27.6688 12.7717 0.534705 -172056 -50805.8 354542 -125937 115120 -13774.7 
350 1 34.8389 27.8621 14.6409 0.692747 -885201 88644.1 -188865 -90199.1 44719.6 -149583 
292 1 23.1956 31.8875 13.1625 10.1349 337309 772443 -198445 -150519 94728 171877 
353 1 23.2581 30.3024 15.1104 16.6764 744185 1.67972e+06 1.69837e+06 -200453 194120 -37841.7 
291 1 25.0119 30.0932 13.2279 0.635793 231603 441660 764486 -350074 -68435 259654 
354 1 25.1565 31.9211 15.1566 0.363432 -65157.5 454336 830288 -69143.7 308055 -80099.2 
296 1 26.8805 31.9264 13.249 0.213382 981303 383271 24320.5 -52920.1 149120 59889.6 
357 1 26.977 30.1947 14.9754 0.632993 725590 165654 710659 -186627 -44638.4 103366 
358 1 28.737 31.9449 15.0973 0.11832 115042 462526 663195 -109693 -75056.5 234477 
295 1 28.7998 30.0751 13.1243 0.468312 -90268.6 65894.9 305751 -392970 88769.6 -165244 