ITEM: TIMESTEP
5000000
ITEM: NUMBER OF ATOMS
5780
ITEM: BOX BOUNDS pp pp pp
1.5242030692917818e+00 7.0775796930723772e+01
1.5242030692917818e+00 7.0775796930723772e+01
-1.1698023598896383e+00 7.3469802359905188e+01
ITEM: ATOMS id type x y z c_csym c_2[1] c_2[2] c_2[3] c_2[4] c_2[5] c_2[6] 
3 1 23.7483 21.9491 0.475872 13.2096 284213 93565.3 862723 135627 -16606.3 286950 
4 1 22.066 23.7346 0.750497 14.895 71727.2 53176.8 433777 -142506 -3048.03 -254104 
2 1 23.8465 23.7625 -1.16235 0.60115 -652946 -1.20991e+06 300703 -840111 236679 204802 
66 1 23.9288 23.5802 2.53007 0.5896 -335549 -125500 362522 -322333 -238167 -43439.8 
7 1 27.2792 21.6433 0.6001 12.6452 210243 614868 426744 254175 -596733 28552.5 
8 1 25.7192 23.5466 0.734241 1.06645 96592.8 131093 -146956 -262616 -313992 8620.51 
70 1 27.2143 23.6983 2.53913 0.860671 -428747 -53705.9 -420736 356579 -97826.5 186274 
69 1 25.5154 21.723 2.4508 16.033 1.32629e+06 198437 1.09717e+06 269536 264486 252113 
11 1 30.6973 21.7839 0.568096 16.441 1.13898e+06 452908 728357 -43921.2 -132148 364421 
12 1 28.9083 23.7037 0.741729 0.874155 137653 -650668 -340625 513640 -34535.9 189778 
73 1 28.8674 21.8375 2.35535 13.5571 1.05412e+06 213566 741292 94518.3 -189491 170757 
74 1 30.8165 23.5287 2.55201 0.314046 -45007.7 -58439.8 495136 397430 171798 -84886.6 
10 1 30.8285 23.5267 -1.15078 0.368547 -41011.7 -588046 -12058.5 -179823 -155124 14102.8 
15 1 34.357 21.7968 0.615383 17.559 835902 277730 662475 -12831.2 169916 11409.5 
16 1 32.5619 23.5882 0.687987 0.148758 245906 -418167 82592.3 -118528 -129401 360948 
77 1 32.5591 21.8517 2.40144 15.9496 509816 -318490 507745 173651 132735 150833 
78 1 34.4226 23.525 2.49648 0.169621 -153734 -273289 -248186 -92714.3 276317 162497 
19 1 23.7812 25.4678 0.788415 0.298064 -31353.9 37040.5 -106068 -537692 129775 -50530.9 
20 1 21.8185 27.1071 0.640863 16.7833 531528 1.01712e+06 946291 74154.4 384146 479858 
17 1 21.9506 25.3154 -1.15872 14.6732 86303.1 546189 660935 211809 182551 182646 
18 1 23.6432 27.1627 -1.04419 0.303586 -403249 -110714 186778 333.024 32822.7 459207 
81 1 21.9825 25.4227 2.5095 18.7343 622002 1.3513e+06 1.17045e+06 -294453 389958 -303064 
23 1 27.3318 25.4818 0.811067 0.385127 -474466 -583751 -164405 174223 -96209.9 164993 
24 1 25.4914 27.3573 0.798676 0.568487 -30739.6 -299945 -208321 -233552 92641.2 -254427 
22 1 27.3548 27.2232 -1.13925 0.437323 -35203.2 -208936 55766.5 -247257 -7847.51 -194492 
21 1 25.5555 25.5312 -1.12161 0.229007 287602 332315 911753 -400902 83154.4 128653 
27 1 30.7952 25.461 0.66959 0.223595 -266095 158285 63607.6 -182367 299818 -28683.3 
28 1 29.0766 27.3124 0.716244 0.191751 -728104 -227170 162410 250124 94957.4 144202 
89 1 29.1171 25.3978 2.52263 0.28051 -54834.4 32612.1 300830 -155171 -276535 -456127 
31 1 34.3398 25.338 0.672636 0.0963257 -157976 524895 305445 -155573 109290 131499 
32 1 32.5397 27.1716 0.718225 0.0950417 13291.9 31297 388881 -506579 122078 -3092.72 
30 1 34.3561 27.2505 -1.12053 0.185624 187504 -320408 16287.3 10832.1 42167.9 -185026 
2742 1 36.1326 27.1896 0.763698 0.319176 -29485.3 -8767.16 -193335 94194.9 -60677.2 150572 
93 1 32.6072 25.3417 2.48423 0.141093 103394 -79548.8 -64681.8 -89349.7 180493 152642 
29 1 32.5254 25.3926 -1.1301 0.122813 349907 463625 221185 -95083.4 165955 -25635.3 
35 1 23.6212 29.0071 0.769693 0.311554 -791553 135548 -344036 282175 18463.9 -190387 
36 1 21.8895 30.8605 0.820505 16.9285 363153 789527 543055 91278.4 -216845 -85184.9 
34 1 23.6367 30.7849 -1.13136 0.0845495 34989.7 -9517.46 232121 -183568 -143197 -315662 
97 1 22.0122 29.1049 2.54635 14.5053 -623660 546215 759468 -834574 462208 425472 
33 1 21.8833 28.9691 -0.937274 15.2818 -81714.3 897006 672836 3630.24 -139513 203481 
39 1 27.3624 28.9925 0.719956 0.302754 -488724 -499785 113269 85793.3 530806 83220.1 
40 1 25.4777 30.746 0.68954 0.221768 191031 198473 216748 163312 103571 338600 
101 1 25.5567 29.072 2.48657 0.631096 -38507.6 -691025 -293917 -323751 150596 -359827 
38 1 27.2207 30.8595 -1.08483 0.343082 -117886 -132736 440745 -200904 264801 86917.1 
43 1 30.7758 29.1007 0.761414 0.22924 -83754.6 214033 509077 -264539 161482 -100707 
44 1 29.0288 30.8605 0.776818 0.151035 -473088 -451738 97298.2 104323 -70561.3 54985.9 
41 1 29.0141 29.0991 -1.15816 0.184161 -4761.45 -150787 131161 -196174 203764 -1373.29 
47 1 34.3422 28.9081 0.711828 0.315525 -25351.1 -184783 195940 -75268 314612 -38136.3 
48 1 32.6067 30.7949 0.6625 0.140001 41038.2 -222558 815157 -92205.8 85513.6 -135735 
2760 1 36.0405 30.7611 0.632221 0.432632 -268852 -294099 -150298 368145 67267.2 -135403 
1283 1 23.6332 36.1059 0.773321 0.145227 -422982 -267197 727547 325341 74839.2 -53363.9 
51 1 23.7968 32.5672 0.63003 0.693853 2896.13 -13850.3 675844 2260.05 282198 -149649 
52 1 21.9553 34.2852 0.780654 16.6756 376403 1.51885e+06 1.60488e+06 -116325 -28454.7 -343020 
50 1 23.6944 34.4015 -1.13964 0.264757 24960 -8181.63 246388 -15484.9 40496.6 250265 
55 1 27.2705 32.5867 0.838313 0.371036 -309993 -390650 21175.1 -76232.5 302293 -199757 
56 1 25.4442 34.3696 0.758265 0.0960858 81140.2 162085 519761 -112468 -236515 30662.6 
60 1 28.9254 34.3608 0.748019 0.303535 511112 449105 958694 -422164 -60929.6 105976 
59 1 30.8739 32.5071 0.732337 0.434056 181500 -8874.85 559672 -231117 -150870 68565.6 
58 1 30.8085 34.261 -1.1614 0.312467 -80162.3 298134 604209 166799 -462479 84289.6 
57 1 28.9263 32.5265 -1.13034 0.300594 -326106 -452547 561272 -115501 20015.1 234326 
64 1 32.5145 34.3937 0.707068 0.252745 -70306 162118 46281.4 -423836 268690 272493 
63 1 34.3457 32.5561 0.668073 0.185314 -8807.54 -366689 122531 -122189 175275 498280 
2778 1 36.0928 34.3801 0.777321 0.292802 175427 435866 71289.6 -336874 -518004 -139575 
1293 1 32.5554 36.051 -1.14436 0.472342 73946.1 162971 151297 -178666 -290482 122322 
62 1 34.3489 34.3322 -1.01969 0.642922 -722728 -515354 221669 -229091 -55779.6 253919 
65 1 22.2107 21.9079 2.56976 28.1382 447091 646772 1.37961e+06 -209102 -142554 -76082.1 
67 1 23.885 21.6143 4.3455 19.2985 444404 520608 825500 148923 166745 33968.4 
68 1 22.2882 23.4949 4.5645 13.386 -74910.8 455788 709204 -63409.1 -632001 -180702 
130 1 23.8952 23.5944 6.26039 0.454395 -1.34112e+06 -76423 -433190 -347393 -354663 -171702 
129 1 22.3206 21.6798 6.23718 31.0903 949658 817162 1.38982e+06 60049.2 299972 369984 
71 1 27.2487 21.7207 4.37141 15.7206 1.4125e+06 579931 1.50549e+06 -50235.6 134211 -230587 
72 1 25.4988 23.5784 4.41165 0.33808 -221099 -11955.6 250556 159145 153099 -28859.3 
134 1 27.4471 23.4455 6.24021 0.476443 516665 -110262 205912 -58079.6 207013 305288 
75 1 30.9721 21.7783 4.41385 16.1798 1.26134e+06 304578 1.43618e+06 149520 313925 63793.6 
76 1 29.1347 23.3884 4.44558 0.892569 304313 368252 631253 107872 555093 107448 
137 1 29.1668 21.6707 6.25547 17.8462 1.12846e+06 97690.2 1.07093e+06 171364 174830 120771 
79 1 34.3137 21.8008 4.29631 15.21 770413 -467000 851725 306077 132625 93466.5 
80 1 32.7223 23.5626 4.24957 0.615572 -383737 -760342 270035 495862 68596.9 -28691.3 
142 1 34.4427 23.5206 6.21853 0.290425 -433768 -860633 570635 -460749 87165.1 71389.3 
82 1 23.7691 27.1784 2.56756 0.299883 -247212 -29433.6 -29126.7 119931 470631 -109011 
83 1 23.9087 25.4069 4.40264 0.287925 -442437 -207296 269690 -44921.2 349221 216618 
84 1 22.1263 27.3241 4.48853 15.041 -18532.5 907181 859656 -529590 -82887.1 -205134 
145 1 22.0892 25.3566 6.29163 17.3717 209933 182898 409570 -206089 -93851.6 155798 
86 1 27.4042 27.3017 2.59022 0.442866 244767 77602.8 129475 -44392.3 185093 -330871 
85 1 25.5691 25.5003 2.58921 0.290711 -639846 -243646 -128815 494848 358358 -5866.49 
87 1 27.2836 25.3177 4.56505 0.699042 321337 544450 613857 -355135 -262099 -106989 
88 1 25.5552 27.2601 4.41118 0.236441 -70241.6 -149308 571400 -453105 -173929 -359821 
90 1 30.8305 27.1702 2.58148 0.114374 321442 185961 546876 -79788.4 180903 -196736 
91 1 30.9186 25.2922 4.42125 0.139255 -20740.2 358781 381938 56370.9 -52879.9 -228254 
92 1 29.107 27.0769 4.5391 0.509233 95077.4 34154.4 34185.9 212381 -67040.8 228130 
154 1 30.9494 27.1491 6.26387 0.117928 -189554 56379 -195927 210060 -334553 -3482.77 
153 1 29.1265 25.3611 6.24396 0.249504 -354099 103008 -378464 -177580 215522 475584 
94 1 34.3433 27.1805 2.56662 0.181182 189568 121353 -265100 2276.5 271017 167296 
95 1 34.5194 25.3614 4.33163 0.348915 -42160.6 -107623 288591 58031.3 -247786 34384.9 
96 1 32.7428 27.0903 4.4737 0.560909 -195286 206636 128687 -23361.5 162618 128328 
158 1 34.4118 27.1238 6.26173 0.286589 -276316 157863 32657 50063.7 48958.9 4095.17 
157 1 32.6511 25.2929 6.23215 0.192551 -137647 -122377 40294.5 -48078.7 -305752 76052.6 
98 1 23.6444 30.7263 2.60225 0.372673 -1.29038e+06 -1.08019e+06 81981.5 -127929 -164952 -318263 
99 1 23.7957 29.0138 4.43114 0.226829 -1.26372e+06 -799785 304300 -913813 -62343.5 101126 
100 1 21.9875 30.782 4.57942 15.5103 263149 592983 663152 -215464 131742 153473 
102 1 27.2394 30.7683 2.621 0.15738 -390263 -382025 319139 -368801 35303.8 -141023 
103 1 27.3497 28.8898 4.57169 0.691542 -284778 -627454 -50976.7 -343128 -110995 -99076.5 
104 1 25.4672 30.6576 4.51645 0.364935 -451708 -542916 271035 -482959 -15121.9 86894.4 
166 1 27.3284 30.7291 6.27046 0.29898 124361 78628.3 -249160 -46443.2 -108969 -51272.9 
106 1 30.7745 30.7987 2.64501 0.343539 -412388 -749914 175983 -607063 -81574.2 24201.7 
105 1 29.1659 29.07 2.65915 0.429661 -648353 -418471 198402 -657233 83885.6 -290597 
107 1 30.938 28.9787 4.4349 0.175848 485683 876990 45572.6 96251.6 -247090 160787 
108 1 29.0116 30.7735 4.49189 0.152179 -222509 25306.1 -86186.3 -149764 406896 102414 
170 1 30.8676 30.8708 6.28653 0.168054 -46411.8 53156.7 337260 -343101 -49158 90428.2 
169 1 29.1448 28.955 6.2856 0.107576 -312321 -32409.5 -134235 38572 -450318 -50966.3 
109 1 32.6419 29.0536 2.57443 0.200463 51526.5 800296 294028 189524 -10182.2 207.618 
110 1 34.5096 30.8508 2.58117 0.499054 -456059 -242305 299901 49314.8 402809 310696 
111 1 34.3451 29.0213 4.35761 0.508972 -509299 183960 -14789 -238205 184533 48780.5 
112 1 32.6874 31.0162 4.38406 1.01335 198342 -16902.2 -237385 -40604.7 -62898.1 470857 
173 1 32.6946 29.0895 6.19991 0.315685 126180 574767 103210 -38343.4 -126513 -303114 
174 1 34.4569 30.919 6.25404 0.496322 99531.2 -72737.2 -146852 -466436 328153 -60046.4 
114 1 23.6996 34.2954 2.63821 0.0816448 -771911 16318.6 47315.3 198175 253072 33336.5 
1355 1 23.5338 36.0476 4.55374 0.657378 -1.12878e+06 -566668 -150325 -172610 -35416.3 8015.61 
1353 1 21.9368 35.968 2.67945 16.3117 -67302.2 862762 709938 317055 -213270 51264.6 
113 1 21.9755 32.4085 2.73062 14.8062 2225.49 286630 536074 462004 -325167 -364719 
115 1 23.7804 32.4419 4.47239 0.408324 -741961 182989 309274 286819 -321603 -80299.5 
116 1 22.0604 34.2093 4.45429 14.1593 -445256 -658531 -325585 -355546 268066 -107095 
118 1 27.1403 34.3396 2.62899 0.371444 -179747 -265605 -199244 -174248 8151.79 -124029 
117 1 25.523 32.5468 2.62174 0.167491 -409447 43724 279705 -23866 143958 78224.7 
119 1 27.2096 32.5148 4.4596 0.1552 96444.9 -98982.3 52606.4 -68310.2 23965.3 6874.45 
120 1 25.4675 34.4594 4.47982 0.517338 213609 580378 43313.7 166368 -222610 73889 
182 1 27.1785 34.3763 6.27595 0.342895 237151 358495 642664 -32556.2 -54295.9 53047.2 
122 1 30.8693 34.4553 2.6028 0.513761 401330 509423 654599 68789.9 212711 166323 
1363 1 30.7618 36.1324 4.6093 0.484502 339963 477959 129986 -30244.3 -240164 276898 
121 1 28.9948 32.594 2.65206 0.09999 55366.7 51310.2 -321722 162440 -363977 -317786 
123 1 30.7299 32.6362 4.46842 0.276932 -164598 -8756.04 361992 319781 -326223 90384.6 
124 1 28.9656 34.3028 4.43558 0.465147 -220104 -696592 251659 372000 5647.83 -43739.3 
125 1 32.6205 32.5161 2.56302 0.394317 46068.7 -231661 -193810 -22046.9 -173142 612449 
126 1 34.3445 34.3398 2.61198 0.201194 540233 448466 370396 -136320 330528 116891 
127 1 34.4893 32.6758 4.48613 0.479521 264785 -203816 276459 -262790 -126551 313548 
128 1 32.6417 34.3311 4.47904 0.211922 -15993 180963 143048 6353.97 37266.9 259328 
131 1 23.7424 21.8469 8.47972 13.8441 451866 440631 1.57216e+06 -23828.4 337492 -347845 
132 1 22.072 23.6972 8.0031 13.5025 238877 374158 1.01805e+06 -490487 195043 770004 
133 1 25.5516 21.6916 6.32178 15.6029 1.51925e+06 620230 1.41938e+06 119480 -376868 -99664.8 
135 1 27.3523 21.7359 8.06817 16.5609 702148 56758.8 616853 122496 -467588 99384.5 
136 1 25.5864 23.4822 8.16615 0.4326 274394 286592 453847 237706 -65551.4 -191945 
198 1 27.3758 23.484 9.92391 0.492977 -95151.8 -308676 307272 -160127 -155829 -18517.8 
138 1 30.9043 23.5221 6.3888 0.574277 -166986 -34146.7 352903 -217788 -11884.1 -154736 
139 1 30.8938 21.6339 8.23227 17.8609 969484 295737 1.07319e+06 71199.6 -250108 -116812 
140 1 29.2054 23.4724 8.091 0.25707 -225124 209801 201.271 60572.3 159454 -23539.7 
202 1 30.8492 23.526 9.95819 0.217141 454121 586543 620592 444818 -330222 -228689 
201 1 28.9765 21.5971 9.89992 15.0617 1.21675e+06 733826 1.26099e+06 361902 16566.5 200656 
141 1 32.8201 21.8677 6.32323 13.718 559496 -375032 868956 -569148 57683.7 -418177 
143 1 34.5231 21.9193 8.21815 14.3073 642494 -417356 352990 -13982.9 -235577 -452711 
144 1 32.6257 23.4702 8.14746 0.407497 -69418.7 -259813 -277223 261427 -137714 -210445 
205 1 32.5976 21.7243 10.0081 17.0439 971431 213720 946394 68693.7 -536202 -75077 
206 1 34.4516 23.4505 10.0238 0.460965 486245 -760398 -140180 -12034.4 -96769 -524923 
146 1 23.7538 27.1449 6.35513 0.196355 -806290 -430937 418051 192902 -296703 -41162.2 
147 1 23.8102 25.3376 8.17806 0.341637 -516659 -103278 -224415 -305353 -42002.1 -52869.7 
148 1 21.9056 27.0247 8.14661 16.473 427994 1.42392e+06 1.27619e+06 -8991.5 4724.4 -103579 
149 1 25.5085 25.3878 6.35434 0.416815 -169580 287576 302232 -452410 154441 -158481 
150 1 27.3075 27.2051 6.32189 0.149639 86783.3 -399716 -302641 -941.54 186431 500311 
151 1 27.4824 25.3811 8.02762 0.665475 55632.3 483378 14881.1 -105913 374588 128405 
152 1 25.588 27.2021 8.21381 0.279253 -223853 -726363 -781456 133442 -172116 58536.2 
213 1 25.7683 25.4671 9.88917 1.33891 -183702 -329180 417030 -629992 -186005 490466 
214 1 27.3911 27.2202 9.92376 0.34576 -1.49591e+06 -998969 -558555 -328758 -678796 106163 
155 1 30.9242 25.4013 8.12993 0.239883 177537 -382623 86889.6 -204606 -4282.4 -160814 
156 1 29.1554 27.1848 8.15694 0.130547 -399035 -234757 262722 -339741 29646.9 -92399.4 
218 1 30.8894 27.0785 9.97378 0.355809 -487701 -208286 -169132 41715.6 -38703.7 -153145 
159 1 34.356 25.3598 8.09806 0.180561 395516 626939 579216 384435 -183788 45106.6 
160 1 32.649 27.1148 8.02386 0.312189 -556619 -89603.7 78331.5 61147.9 -143705 -247894 
222 1 34.3824 27.1957 9.96234 0.175603 -296870 -24607.5 847180 122295 310796 -248597 
2955 1 36.1217 25.3559 9.988 0.210438 499022 457186 1.13623e+06 -225422 5713.68 -145334 
162 1 23.8136 30.6159 6.49619 0.886158 -1.04853e+06 -164491 155550 -130422 -327307 -181571 
161 1 22.1094 28.9136 6.37116 15.7022 -272835 -103486 288509 59485.1 -137646 -553686 
163 1 23.7337 28.791 8.32462 0.591023 -638910 -80938.7 -24660.7 71037.6 -269022 309945 
164 1 21.872 30.5751 8.15095 17.2835 801712 1.54942e+06 1.36664e+06 97043.5 229668 -128962 
165 1 25.4822 28.9585 6.35263 0.240116 -439738 -761313 -152592 537960 23003.5 128410 
167 1 27.3318 29.0134 8.16094 0.200315 -188113 -358317 -102890 -185010 -185643 107272 
168 1 25.4244 30.6507 8.26276 0.329572 -261153 332652 66625 124160 -709641 -1677.98 
171 1 30.8701 28.9554 8.09399 0.103767 88278.1 332420 485422 -143565 -238534 -115869 
172 1 29.0806 30.7835 8.06435 0.278425 -94011.7 -277779 243376 -265799 -136227 217534 
234 1 30.8954 30.7822 9.97708 0.222897 194628 117036 -138842 -169130 -294359 272526 
233 1 29.0864 29.0096 9.94801 0.145511 -283319 -548274 -580140 -303418 -352995 131184 
175 1 34.4311 29.0453 8.04733 0.411009 42940.8 257344 463235 205874 -131930 -148010 
176 1 32.6996 30.7894 8.06192 0.282711 -468720 -291565 -77955.2 -117911 -101635 -302659 
237 1 32.635 28.8502 9.9554 0.47306 -165838 -200804 423896 111368 -13766.6 199846 
238 1 34.3448 30.6915 9.99914 0.473645 -384843 -255596 -274876 668787 -93503.9 199143 
1425 1 21.8615 35.8192 6.30001 14.1388 -378363 1.13523e+06 853428 714825 315721 -206346 
178 1 23.705 34.3695 6.43605 0.512292 -976706 -392821 279313 539170 -604198 21055.3 
177 1 21.9265 32.5734 6.30056 14.8094 893497 1.29747e+06 1.07008e+06 -288659 112987 -143788 
180 1 21.8556 34.1368 8.33209 14.7145 452870 984596 1.22024e+06 342348 -241134 -273490 
179 1 23.6838 32.4812 8.33129 0.350749 395387 179542 865323 334699 -101757 -162790 
242 1 23.6976 34.3104 10.0245 0.254177 -525376 201802 -20032.9 137832 157189 -148551 
1497 1 21.869 36.0828 9.90438 14.7727 285898 992895 1.28327e+06 -212746 354588 61414.3 
181 1 25.4241 32.55 6.34186 0.15805 265259 489882 591881 -109509 -341154 -138922 
183 1 27.2216 32.5312 8.13079 0.309177 236732 753165 270303 27699.2 146722 -19147.3 
184 1 25.3821 34.372 8.21282 0.207409 -180633 53261.3 -204596 -129068 -148755 -89436.7 
1431 1 27.1777 36.1275 8.24138 0.31084 86135.9 370522 371099 231909 321798 -56784.6 
1435 1 30.9382 36.1301 8.21301 0.230055 161354 -84500.8 390599 147971 91291.5 -138635 
185 1 29.0127 32.6636 6.43283 0.625197 -28146.9 -38758.6 -57080 -18703.3 234889 204613 
186 1 30.8088 34.4257 6.37454 0.141613 208438 -402969 353235 43055.7 136394 147163 
188 1 29.0644 34.32 8.31306 0.359862 302081 -210041 54814 216843 228376 -163452 
187 1 30.8032 32.588 8.23334 0.242363 -177317 -91969.5 17472.9 103114 -142142 -27645.5 
189 1 32.5311 32.6279 6.32581 0.427756 -85827.6 -621395 240364 -341943 21152.7 205312 
190 1 34.3518 34.3538 6.39198 0.383721 -148019 27868.8 -99403.8 -65168.9 11534.7 -284333 
191 1 34.4977 32.4554 8.1358 0.468808 -491145 -343445 -665062 -398975 366216 -378277 
192 1 32.699 34.3916 8.24948 0.343933 -428774 -518385 -528382 -154019 188140 84383.3 
253 1 32.7666 32.5347 9.87596 0.792723 -346254 -842120 -340493 -64618.9 169335 357780 
254 1 34.4816 34.2407 9.97814 0.429863 -610477 -227417 198871 -258840 -422893 130234 
194 1 24.022 23.7404 10.0851 1.5803 96541.2 -257359 212225 -511994 48630.2 187081 
193 1 22.0493 22.2791 10.0873 25.8266 266339 825602 581532 11210.3 468444 -279158 
195 1 23.882 22.0088 11.9194 13.7032 549047 88917.2 990851 -37621 261458 -111248 
196 1 22.03 23.6317 12.1086 15.1099 568882 664319 1.22245e+06 146652 -109196 -512338 
197 1 25.6666 21.7067 10.1719 16.4849 1.14994e+06 456401 1.16451e+06 -282096 -75721.9 -142370 
199 1 27.4714 21.8595 11.9442 14.5906 102606 -816159 615001 -638883 -48492.3 -65996.5 
200 1 25.7698 23.6475 11.8825 0.434021 -178401 16363.4 333066 -321337 -362865 107829 
262 1 27.4376 23.7081 13.7114 0.354415 -270375 -305412 -269223 -217574 447056 -156972 
203 1 30.6966 21.7442 12.0811 15.5044 1.13328e+06 484216 1.40453e+06 51598.6 81940.9 -185701 
204 1 28.9974 23.5718 11.8743 0.432361 -473517 -655058 328287 -456458 248029 343446 
207 1 34.2871 21.8558 11.912 15.6938 550628 -254228 836784 370269 -127998 74515.2 
208 1 32.5458 23.4512 11.8455 0.536298 -77982.1 -531846 685334 489878 -162083 -3097.92 
210 1 23.6969 26.9987 10.0305 0.61896 289861 -174752 -59997.6 -441480 22710.6 279966 
209 1 21.9883 25.2605 10.1096 14.2911 220169 1.44002e+06 1.48121e+06 -278181 -77894.6 39371.2 
211 1 23.7771 25.5016 11.9816 0.498725 460564 394248 466375 -419241 -171710 79512 
212 1 21.8369 27.1262 11.9078 17.9421 496687 1.10722e+06 1.54576e+06 -110666 90091.6 150583 
215 1 27.393 25.4789 11.8181 0.298877 -747381 -431060 -334240 -358696 -91802 107758 
216 1 25.5241 27.2151 11.9824 0.477876 -229120 -264411 277190 -226127 -280191 410278 
278 1 27.4128 27.2731 13.6238 0.459224 -659186 -930034 209615 143400 -232631 78976.4 
217 1 29.0702 25.2964 10.0282 0.5175 12303.9 -154172 187586 -14320.3 183087 -30874.7 
219 1 30.9193 25.3886 11.8829 0.352594 491851 474276 268632 -44873.5 132004 -3955.2 
220 1 29.0579 27.2522 11.6408 1.0112 -749107 -689932 -426096 -399479 19974.6 263241 
281 1 29.0555 25.5734 13.6555 0.953755 -560459 -238530 475087 -2212.55 -75449.4 -364341 
282 1 30.9325 27.1739 13.6604 0.160105 -82966 -376598 842538 -533239 452506 -240479 
221 1 32.6473 25.3974 10.0328 0.300933 19404.9 -47298.8 277044 31808.9 25123 -356946 
223 1 34.3835 25.1908 11.9249 0.622411 306231 715526 497662 196258 217827 13581.2 
224 1 32.6922 27.181 11.7758 0.290436 -803.488 -231114 -677082 -386014 99670.6 -273268 
285 1 32.6659 25.3026 13.7399 0.195726 -391796 586823 341821 42278.5 171023 35356 
286 1 34.3346 27.1854 13.7206 0.186871 -460843 -23781.3 239239 82843.3 -84153.9 103603 
225 1 21.8706 28.9141 10.0492 17.0128 357845 1.53095e+06 1.31095e+06 16887.9 -68938.1 349328 
226 1 23.6871 30.7114 10.1399 0.25734 -31791.1 593850 122137 70661.7 -268882 295273 
227 1 23.631 28.8217 11.841 0.762398 -73690.4 45828.5 877921 237572 -149873 76839.2 
228 1 22.0471 30.7072 12.1186 14.714 -426541 376835 79194.5 106431 -630672 463060 
290 1 23.7199 30.6541 13.731 0.489049 -947790 128631 -107538 576099 -579317 40038.5 
230 1 27.2192 30.7074 10.0304 0.187352 7698.09 99245.7 6715.49 25120.7 -328328 -11619.2 
229 1 25.5321 28.8029 10.0295 0.489459 -114545 -256173 -488176 81434.1 -282995 -161656 
231 1 27.3059 28.9922 11.8666 0.195796 -293302 -627055 -56853.2 -142870 -55457.2 389475 
232 1 25.3826 30.7353 11.8123 0.647793 -85319.9 474658 145932 -29584.7 -275547 69844.7 
235 1 30.8135 29.007 11.7507 0.263077 -256850 185946 61028.9 -96912.9 -106288 236745 
236 1 29.019 30.7269 11.7863 0.224693 -283692 -354966 83616.1 -242307 -98122.9 154058 
297 1 29.1849 28.9735 13.6827 0.241323 -390798 13570.8 414255 -286884 -72705.4 97409.5 
298 1 30.7889 30.8455 13.7212 0.274168 603940 269794 894299 -419038 -36535.5 182924 
3045 1 36.1149 28.9386 13.7563 0.130522 -159426 -157898 138934 -114326 -336628 -255432 
2973 1 36.1136 28.9596 10.0468 0.333829 -526668 -522746 -319101 16963.6 239792 -140087 
239 1 34.4238 28.9845 11.8681 0.201193 -123716 -94395.3 -300281 -316349 285371 93754.5 
240 1 32.5726 30.8501 11.7375 0.627391 -12410.5 812076 185746 25958.2 -239058 191491 
302 1 34.3375 30.7367 13.6957 0.219094 527210 27754.6 646819 183836 -47899.5 173708 
301 1 32.5848 28.8965 13.5978 0.754591 -269873 69391.9 591497 -375306 107435 -153344 
241 1 21.8494 32.4205 10.29 15.8638 527783 1.36108e+06 1.27621e+06 196802 -283359 173848 
244 1 21.9647 34.4012 11.8566 14.0861 257422 1.16852e+06 1.37834e+06 -44760.9 105941 -5051.2 
243 1 23.7013 32.6061 11.9479 0.347662 -734746 -156686 106699 12590.3 81049.2 -36583.9 
306 1 23.768 34.4888 13.7033 0.875103 -263676 -26879.3 376025 -724900 180594 86761.1 
1503 1 27.2361 36.1383 11.8596 0.247565 309957 362275 906403 167573 96924.3 87994.6 
246 1 27.2514 34.2945 10.082 0.208011 -457889 -252315 -25129.6 -290658 91194 45661.4 
245 1 25.5302 32.6306 10.1068 0.568499 -327779 -326161 2889.22 -93013.9 -299545 55888.1 
247 1 27.1864 32.5302 11.936 0.168833 -437112 291980 -281188 -107384 -137061 235162 
248 1 25.4485 34.3936 11.923 0.0704766 -367999 -354673 -130946 -26475.1 297128 -186753 
309 1 25.5183 32.546 13.7398 0.174761 439079 942950 327847 -49385.1 560287 101245 
1505 1 29.0844 36.1153 10.066 0.119956 489131 102733 629529 97609.8 153267 -133082 
1507 1 30.9479 36.0554 11.997 0.557075 680268 511190 707373 36573.9 70889 13002 
249 1 28.9752 32.5412 10.0377 0.141962 54932 -128733 -134227 192110 -181175 321372 
250 1 30.9298 34.3385 10.0619 0.228391 323151 117960 70870.5 -109789 -73807.9 126203 
251 1 30.7289 32.5646 11.8264 0.380844 370705 -100995 517659 159614 -303864 69810.9 
252 1 28.9533 34.3062 11.9119 0.233927 3914.28 40474.8 233295 272147 -285471 -96204.4 
314 1 30.7707 34.249 13.7455 0.300574 625438 409590 618198 266118 152658 28141.4 
2994 1 36.092 34.3777 11.888 0.306424 136414 -2619.67 599027 -410744 8579.04 66839.5 
1509 1 32.7181 36.064 10.0764 0.403881 223505 468179 112658 -313529 -168334 -349284 
255 1 34.5288 32.555 11.8863 0.542846 -460735 -748513 475384 286846 -327041 207956 
256 1 32.7162 34.2045 11.9476 0.764632 163732 561310 452455 363336 -456734 364024 
258 1 23.9946 23.6421 13.7982 0.355587 114939 -115612 557211 -27294.3 -31410.1 -371190 
257 1 22.353 21.7714 13.9141 32.2426 885434 1.03972e+06 1.58833e+06 60859.2 46151.9 -20917.1 
259 1 24.0648 21.8725 15.7968 15.24 227364 611313 386000 -274216 190047 -183119 
260 1 22.1703 23.7562 15.5811 14.4521 366008 951381 1.18236e+06 -430859 -103797 561867 
321 1 22.3826 22.0354 17.4611 26.6979 -132675 -18607.8 352654 -350483 273061 -188641 
322 1 23.8907 23.85 17.4384 0.829788 -849665 -887778 -63309.9 -1.08516e+06 194711 -61267.8 
261 1 25.7045 21.9199 13.8078 16.104 776895 -170791 675728 170304 -157791 -48667.3 
263 1 27.3124 21.8039 15.67 16.6396 512031 248419 816353 465263 -106000 61430.4 
264 1 25.7954 23.6699 15.6223 0.677404 -193160 -762005 101160 -191799 -171948 31010.7 
265 1 29.0685 21.7899 13.9059 17.0731 528558 210071 388657 -84310.8 254586 -159441 
266 1 30.763 23.6127 13.816 0.343303 263536 -753994 -35219.2 -115082 136839 -463736 
267 1 30.8142 21.8868 15.7574 15.8393 -169483 -727176 469478 285638 -247635 -267317 
268 1 29.1851 23.5635 15.7446 0.633294 -176058 -657711 88907 378998 210152 -574169 
3009 1 36.0324 21.719 13.8828 16.9556 994276 287000 1.20072e+06 307104 204277 -171172 
270 1 34.3382 23.4816 13.8221 0.231252 161610 -566599 444339 422872 47289.2 78688 
269 1 32.4737 21.8594 13.8274 15.3744 602405 -17947.8 659028 23761.5 -122388 -58129.8 
271 1 34.3325 21.7039 15.636 18.8078 921546 441948 692081 69751 356612 113034 
272 1 32.5726 23.5275 15.7061 0.257071 -475808 -1.31238e+06 68119.5 72295.2 -77331.2 264326 
334 1 34.4371 23.5461 17.4719 0.373984 278731 165067 940338 60362.8 -35690.4 62946.1 
273 1 21.9965 25.4706 13.8541 17.8308 332912 445989 239045 -494378 -56701.7 12137.3 
274 1 23.7486 27.1638 13.8503 0.207371 -239903 -313667 -260326 -344884 279091 171427 
275 1 23.9209 25.4928 15.5739 0.544303 -434994 -712044 -565858 -291354 -24146.3 486129 
276 1 22.0287 27.1124 15.6798 15.5878 -125983 932354 492766 5619.67 -93093.2 -288661 
338 1 23.7345 27.1587 17.4758 0.465948 -622861 -81310.8 230531 194558 -44166 168765 
277 1 25.6563 25.5405 13.8261 0.328291 -394480 -20542.4 -66482.2 -95709.2 121195 368845 
279 1 27.3959 25.4968 15.6216 0.243853 -52589.1 168600 243312 -527880 -335291 -44004.8 
280 1 25.5729 27.3268 15.6731 0.318532 -735591 -850938 -374398 -226952 -492434 -31978.2 
342 1 27.2929 27.3226 17.4206 0.603357 -409538 70663.9 165014 -586284 -227177 -11754.3 
346 1 30.8809 27.1834 17.4126 0.36166 -327435 8522.12 233271 391340 25229.5 11823.1 
283 1 30.97 25.2749 15.5638 0.76797 -102059 -246553 334976 363746 203840 -555622 
284 1 29.2607 27.1539 15.5834 0.529744 107592 -35271.7 -14218.8 -380955 -254615 -336212 
345 1 29.1562 25.3203 17.4585 0.395401 79414.1 -25079.2 490579 -653403 -309586 -406269 
3030 1 36.0122 27.2025 15.5953 0.439147 421534 -38597.4 -90363 -493439 -125012 -122007 
288 1 32.6877 27.2455 15.7125 0.678739 -180483 39728.6 269234 -27752.7 58957.5 64641.4 
287 1 34.3196 25.3589 15.6742 0.241879 259827 96050 353955 -128897 -89732.7 -77485.7 
354 1 23.6933 30.763 17.4544 0.28757 -876238 -665415 124371 -88576 -172257 -105602 
289 1 21.788 28.9655 13.8164 19.2425 1.02438e+06 1.33319e+06 1.45893e+06 -185354 73547.4 313054 
291 1 23.7707 28.9615 15.6713 0.209286 -762390 -377050 -67826.2 18145 270637 -84689.1 
292 1 21.9754 30.777 15.6196 16.5499 169541 901875 734146 39467.4 -208495 393278 
353 1 22.0322 29.0618 17.4561 15.6676 -244386 698342 900650 -400809 99994.9 161685 
294 1 27.325 30.6927 13.7589 0.261928 246322 -310315 563413 -492728 130542 292945 
293 1 25.5198 28.9836 13.7944 0.182148 -73359 -221665 111212 37882.9 95010.6 -146207 
295 1 27.3654 28.9792 15.5692 0.204104 -486812 -613459 155730 -800206 -273701 520627 
296 1 25.525 30.6697 15.6699 0.261398 21018.9 -443343 512182 -75553.1 261126 -43902.4 
300 1 29.0428 30.6612 15.7192 0.327979 -385008 -268371 235234 -563468 -16621 99399.5 
299 1 30.8939 29.0247 15.5338 0.421022 131417 107184 687579 7503.66 26072.7 185044 
361 1 29.1316 28.8859 17.4638 0.417918 -555675 -723336 400198 29787.1 -143295 365013 
3048 1 36.112 30.669 15.6428 0.406201 -253786 131169 167102 98495.3 -23999.1 -30746.7 
303 1 34.2488 29.0788 15.5882 0.77474 -280579 -261153 500677 -499599 106756 97618.1 
304 1 32.5888 30.9013 15.7293 0.766995 163846 -105289 468102 436666 -16436.9 -154362 
1569 1 21.8137 36.1423 13.9369 17.7731 587236 1.43499e+06 1.62222e+06 -209788 -221126 158813 
307 1 23.8482 32.4897 15.561 0.66206 -505070 540508 390027 222507 -209765 22336 
305 1 22.1441 32.5673 13.8563 14.2991 -189929 727745 388935 73551.7 -89974.4 -123599 
308 1 22.0161 34.2184 15.8001 14.9221 360943 880418 943425 96148.6 -360453 204356 
311 1 27.1929 32.5331 15.8192 0.762499 -134643 520840 283241 -314161 300652 -121755 
312 1 25.5444 34.4596 15.6586 0.489994 425016 467037 303308 -20584.2 -34331.8 209502 
310 1 27.2121 34.4674 13.7712 0.411357 -233051 147353 260275 63387.4 135948 -49184.7 
1579 1 30.7741 36.1006 15.5722 0.591119 540789 1.00207e+06 949603 -58850.2 56845.6 122597 
1577 1 29.0639 36.1126 13.7611 0.167932 177796 442831 346776 8778.19 -53032.3 131455 
315 1 30.7364 32.4905 15.7146 0.271185 -160612 -99037.8 554972 398483 -12548.2 69258.6 
313 1 28.9024 32.5229 13.7853 0.383227 190358 48286.8 774420 -302074 -274184 -103376 
316 1 29.0027 34.257 15.6195 0.351763 355439 128131 678133 -72132.2 42269 70640.4 
3066 1 36.1102 34.433 15.6149 0.238987 -154116 -293708 194927 -418597 73580 120237 
3063 1 36.1263 32.5556 13.768 0.131378 -259780 465353 -76889 136556 -59870.1 15414.7 
318 1 34.3302 34.3735 13.7756 0.210872 -306654 -64154.4 47579.1 21095.5 -284718 231249 
320 1 32.6686 34.1974 15.7124 0.921538 110222 309264 266418 262717 1402.73 128146 
319 1 34.4652 32.6368 15.6061 0.558688 -780660 -298020 119925 229128 -43349.9 28279.9 
317 1 32.6218 32.537 13.8028 0.186261 265899 -331719 385157 -39025.1 -168195 304635 
323 1 23.885 21.9635 19.3958 16.7901 -42722.5 -142799 1.00555e+06 -389477 -365939 -170613 