ITEM: TIMESTEP
10000000
ITEM: NUMBER OF ATOMS
5780
ITEM: BOX BOUNDS pp pp pp
2.3782738830111474e+00 6.9921726117004397e+01
2.3782738830111474e+00 6.9921726117004397e+01
-3.0812705424827476e+00 7.5381270542498299e+01
ITEM: ATOMS id type x y z c_csym c_2[1] c_2[2] c_2[3] c_2[4] c_2[5] c_2[6] 
3 1 24.0244 22.4164 -0.938287 17.7352 436774 -8341.41 1.60566e+06 -565733 -468094 -124947 
4 1 22.1501 23.9933 -1.30016 14.1421 595049 529273 1.39204e+06 -59750.7 68406 227775 
66 1 23.996 24.1822 0.841116 1.13099 -873123 -594763 591527 -754007 281783 -270711 
7 1 27.4171 22.2801 -1.15996 16.0808 1.13314e+06 341234 1.26801e+06 47123.8 -43510.7 -243619 
8 1 25.711 24.0462 -1.08752 0.318326 -677283 -947968 1.05761e+06 -761314 -35188.9 -116724 
70 1 27.4095 23.9732 0.746605 0.318223 -494945 -598614 49925.7 53250.8 238409 -208209 
11 1 30.8253 22.0937 -1.16035 16.7863 1.32698e+06 191913 991931 -124696 -226613 -247576 
12 1 29.1813 24.0421 -1.18023 0.586682 -354167 -123353 544062 57462.3 -216030 -49430.2 
9 1 29.1271 22.0484 -3.00172 17.296 1.34123e+06 804832 1.41265e+06 -227864 193223 -72903.4 
74 1 31.0653 23.8365 0.563416 1.35244 -147015 -246487 2523.96 -186470 191835 -140557 
73 1 29.1439 22.2094 0.796771 15.9737 1.1445e+06 492057 1.26156e+06 62635.3 98017.7 -123871 
16 1 32.721 23.7803 -1.15478 0.338265 275923 556145 647399 -54510.5 539202 45840.1 
15 1 34.4334 21.9849 -1.23105 19.0946 1.69839e+06 716526 2.00239e+06 65864.1 163992 -124061 
78 1 34.4482 23.7549 0.753986 0.148535 452055 304998 1.01876e+06 51381.7 -71864.4 26772 
77 1 32.639 21.9449 0.718178 19.4363 1.48817e+06 351778 1.46911e+06 177968 51874 -54945.1 
2724 1 36.1494 23.8322 -1.1818 0.171773 584906 -105388 1.18711e+06 166829 105106 77397.7 
19 1 23.8988 25.7567 -1.16504 0.191812 90219.8 181154 1.04515e+06 -135194 -133173 96699.7 
20 1 22.0822 27.4618 -1.1456 17.271 599123 1.32615e+06 1.2845e+06 169051 -92159.9 -189549 
82 1 23.8764 27.472 0.732507 0.274707 -40049.6 538189 776248 -102437 129176 -220423 
18 1 23.9522 27.5024 -3.06292 0.335333 -886289 -411585 558674 2568.38 -132705 -47559.4 
23 1 27.4347 25.6943 -1.26043 0.49315 -705626 -720427 379153 -180961 -125163 -169794 
24 1 25.6439 27.4624 -1.21996 0.240351 128478 -146923 260818 73267.6 -102876 64210 
85 1 25.7777 25.7896 0.827709 0.261534 -530199 -842634 254108 -495478 195012 -264646 
86 1 27.5168 27.4759 0.794393 0.307182 35425.8 133050 1.0466e+06 -273516 454650 135423 
27 1 30.9509 25.7624 -1.14621 0.518239 -208997 119610 794432 -392925 -10358.9 165721 
28 1 29.1511 27.4174 -1.18373 0.436238 -268595 -214893 864437 133142 -77567.2 -113243 
89 1 29.1614 25.6412 0.806016 0.534577 -166367 83316.8 72734.4 -147600 347872 96531.4 
90 1 30.9284 27.5056 0.824282 0.173344 980373 439883 758004 -363309 -10193 248388 
32 1 32.6771 27.4469 -1.23905 0.341387 358547 474636 939846 -614621 -201589 71659.1 
31 1 34.5173 25.5949 -1.19936 0.347877 -74691.1 -8100.58 515627 85903.1 280067 8446.57 
94 1 34.4207 27.3534 0.691809 0.543509 351443 266491 1.23677e+06 -391616 213355 -20724.3 
93 1 32.7942 25.5961 0.776777 0.486198 -133039 97085.3 607248 -582019 98470.5 54063.6 
35 1 23.9354 29.2422 -1.24195 0.328192 -92998.9 7980.58 812609 310328 -111002 -257170 
36 1 22.1089 30.8702 -1.20716 16.4699 66663.4 1.20173e+06 1.59311e+06 -71706.5 -118861 -95232.6 
98 1 23.8568 30.9785 0.678529 0.407518 104793 283593 1.02514e+06 236882 -168913 241118 
97 1 21.9737 29.0921 0.741619 18.6698 898971 1.4809e+06 1.5638e+06 285830 -77882.2 -44756.4 
39 1 27.5303 29.2582 -1.17807 0.372927 309287 -64075.2 942133 -54827.6 -112796 -194674 
40 1 25.6755 30.9831 -1.27109 0.416157 -9747.09 -87268.7 286801 -349843 -142049 373912 
102 1 27.3157 30.9643 0.689927 0.732778 -287287 -649485 449080 676494 49678.2 128600 
101 1 25.5986 29.1656 0.77991 0.330389 159960 162494 908828 -359879 -32259.1 103185 
43 1 30.8051 29.2616 -1.06805 0.957282 537845 73035.2 1.19227e+06 179975 -117235 -177889 
44 1 29.178 30.9832 -1.12094 0.276055 -626739 -679989 1.29777e+06 439381 -56804.1 1775.33 
106 1 30.998 30.8866 0.827167 0.4979 -109802 218907 826643 -135032 119552 -147052 
47 1 34.4608 29.1979 -1.16048 0.207651 329565 635313 1.08038e+06 -153122 -31534.8 220279 
48 1 32.6432 30.998 -1.15176 0.430656 232559 378124 1.19507e+06 514391 5166.55 281652 
1281 1 21.8225 36.0651 -2.95871 18.0138 419042 1.6379e+06 1.71915e+06 136245 -164192 -138598 
51 1 23.7451 32.6535 -1.17743 0.216728 -436241 -144615 413637 -338684 388484 15132.2 
52 1 21.8964 34.2906 -1.04035 18.5074 161192 512415 1.09979e+06 -209143 -33100.5 367326 
1283 1 23.6263 35.9779 -1.15853 0.628778 -154814 174316 888917 99816 58350.3 -192495 
113 1 22.0846 32.6548 0.729116 15.5433 -270534 652510 940657 -120070 206548 341291 
114 1 23.8507 34.2751 0.798143 0.318791 -711437 -310478 710749 -240834 -151061 -120869 
1285 1 25.5516 35.9975 -3.05508 0.18121 177667 -260274 631238 -517568 -4670.41 -215272 
55 1 27.4797 32.6507 -1.12465 0.291081 -334157 -335842 629607 167357 -101633 457350 
56 1 25.5861 34.3217 -1.14895 0.129433 644382 419945 556504 -34558.4 253246 -141746 
117 1 25.637 32.6129 0.829938 0.182072 -430507 -498283 883727 520624 -150918 -259546 
1287 1 27.4386 36.1276 -0.973703 0.552384 -802868 -460511 610519 770903 -64904.7 367232 
53 1 25.5924 32.6567 -3.0047 0.46592 134862 -284341 286025 -462771 155120 139459 
54 1 27.3934 34.3707 -3.0497 0.142501 -492293 -211012 1.00883e+06 743462 91918.2 334112 
59 1 31.0075 32.7008 -1.16299 0.257329 -75082.4 -442096 1.16362e+06 74701.4 70314.6 316822 
60 1 29.1939 34.4789 -1.05596 0.216532 -67276.1 -92594.5 609556 90423.1 8436.69 178979 
58 1 31.0731 34.3696 -3.00835 0.467451 -313590 -181191 475238 -69685.4 -65032.7 188434 
1289 1 29.2794 36.0765 -3.03741 0.380029 181794 393436 460699 158998 -267532 161034 
1295 1 34.4355 36.1386 -1.06902 0.152493 -72195.6 -268083 269463 -176433 50268.4 14937.6 
64 1 32.6895 34.4073 -1.08808 0.201852 -543187 -468508 549457 -224627 -241863 1457.23 
63 1 34.5242 32.7524 -1.04043 0.284173 -760953 -322529 645225 -465424 82229.3 177210 
62 1 34.4162 34.4683 -2.99946 0.372441 -247125 -478726 485720 -11024.6 -183250 -205914 
61 1 32.8392 32.6297 -3.06244 0.380417 -778672 -1.07477e+06 281929 56914 178628 155646 
65 1 22.0667 22.8306 0.885205 28.1963 497084 490999 717177 -529525 -89172.1 -238707 
67 1 23.9375 22.2654 2.67012 14.7208 382222 594218 483301 301637 770847 -2344.52 
68 1 22.3672 24.1126 2.88673 16.3329 -137959 198307 197039 -79072.6 -301093 -659742 
129 1 22.8141 22.1412 4.71685 26.9449 74748 -85636.5 -236537 -469938 266752 -209031 
130 1 24.0463 24.1279 4.65898 1.0489 -1.10861e+06 -1.07946e+06 204173 -642066 -383678 -43999.7 
69 1 25.6657 22.1381 0.863598 19.6357 1.25497e+06 862584 1.19709e+06 -141315 -133516 -83321.9 
71 1 27.5481 22.288 2.78619 15.1299 784989 106502 1.24804e+06 216711 308205 -22259.8 
72 1 25.8929 24.013 2.67538 0.570694 -75280 -765198 435745 352337 337017 422958 
134 1 27.6803 23.9764 4.74686 0.790767 797188 -337035 439674 -339082 67904.6 60119.8 
133 1 25.693 22.3823 4.5533 12.3875 1.10501e+06 114182 1.17466e+06 339028 -15946.8 188004 
75 1 30.9517 22.1363 2.65504 15.3238 638979 -347345 1.64094e+06 -318182 11651.7 -61555.2 
76 1 29.3579 23.9557 2.66105 0.698062 -274351 -658640 511136 80464.3 -533552 148496 
137 1 29.265 21.9623 4.71807 20.2675 1.06458e+06 569489 1.27114e+06 -112881 -104570 -152311 
138 1 30.7709 23.9238 4.60224 1.18421 -48568.4 -268570 553359 425218 -566222 -64205.5 
80 1 32.5779 23.7987 2.61013 0.571526 -244136 -911742 980542 -403479 -168075 271629 
79 1 34.354 22.1109 2.83305 16.208 1.24121e+06 303183 1.29983e+06 116933 -191869 -187122 
142 1 34.2963 23.743 4.70837 0.344982 -783082 -1.2442e+06 1.02426e+06 -283272 -145270 -375521 
141 1 32.6161 22.2441 4.74925 13.3348 -75350.2 -608751 649927 -885204 207557 -301728 
2865 1 36.0655 22.0448 4.64469 17.7897 1.17034e+06 182703 1.39894e+06 37391.8 -339335 -344760 
81 1 22.0333 25.5777 0.845016 13.9657 519976 1.41969e+06 1.53612e+06 509777 9125 -152814 
83 1 24.1527 25.8254 2.77941 1.08487 -577902 -767255 156778 -797047 140369 -181479 
84 1 22.1435 27.3282 2.60255 14.4443 452602 828236 558544 -17453.4 201016 -94767.7 
146 1 23.9842 27.4888 4.60323 0.407248 -420965 120393 948091 204961 45724.8 -382886 
145 1 22.0724 25.8774 4.61613 15.4495 743656 971844 896196 -347943 -98516.8 -362428 
87 1 27.6241 25.6886 2.68042 0.422665 -519697 -125925 488433 -517991 315122 -37079.7 
88 1 25.7624 27.4764 2.64952 0.218501 -56595 -647004 484508 -1.15432e+06 352131 6038.73 
150 1 27.5503 27.5305 4.74651 0.230258 -17193.1 115933 933785 -272296 245121 118352 
149 1 25.8386 25.7634 4.67322 0.210318 26358.9 -106996 298021 -457859 -464722 268974 
91 1 31.0329 25.7142 2.55961 1.07185 -456114 -492462 921472 -295637 30167.4 264456 
92 1 29.2918 27.4334 2.88133 0.632893 -87050.7 -211929 644011 -633810 227129 32569.8 
154 1 31.0983 27.4058 4.75453 0.486629 -425065 -797926 144333 -756868 -1181.51 415592 
96 1 32.7202 27.3909 2.81303 0.141735 -693386 -624148 589454 -186852 -112376 9972.72 
95 1 34.3488 25.5583 2.76273 0.296165 -5575.58 450114 725637 269940 44699.6 -178919 
158 1 34.3645 27.2704 4.73371 0.339486 -83541.8 -93277.5 358533 -506202 -97581.5 153743 
157 1 32.7038 25.528 4.66098 0.480646 -632282 -356804 469139 96716.3 -48550.1 275257 
99 1 23.8154 29.2468 2.63569 0.524159 -416770 -3485.59 683565 -123695 291037 -251041 
100 1 22.0824 30.8825 2.76326 16.4694 -85812.3 1.08501e+06 1.50877e+06 195122 -320727 -10883.7 
161 1 22.0928 28.924 4.52765 13.4986 -94199.2 1.02121e+06 1.2985e+06 266414 130681 43277.7 
162 1 23.707 30.7926 4.65613 0.643648 -281069 70852.6 -88274 223442 -82479.8 134009 
103 1 27.4097 29.3065 2.7355 0.440784 -125268 260829 563633 -108103 439266 -195827 
104 1 25.5756 30.8621 2.82834 0.511195 -136034 -541371 542964 -100322 68766.4 195240 
166 1 27.5364 30.8308 4.75934 0.910787 -666278 -301752 674165 106993 -89988.2 -191089 
165 1 25.673 29.2581 4.64214 0.303846 -136364 -56577.7 543036 -373422 109245 398435 
105 1 29.1583 29.3736 0.942679 1.10535 -480708 125669 655310 -367522 310925 -117398 
107 1 30.9971 29.1339 2.84963 0.277546 -489255 -298829 495583 -424396 143796 64764.1 
108 1 29.251 31.0168 2.80662 0.330312 226382 -140820 451634 -273126 112510 -225114 
169 1 29.2799 29.2512 4.70978 0.283362 -351604 -336303 733388 156476 53857.6 -231574 
110 1 34.4644 31.0114 0.933128 0.180042 406274 411682 1.36577e+06 -160381 30497.2 108841 
109 1 32.7182 29.2011 0.920305 0.322271 112414 68558 1.21459e+06 128338 56799.4 -93913 
111 1 34.4357 29.1367 2.89259 0.226204 34682.3 280793 841608 -148715 -124128 103200 
112 1 32.7155 30.8934 2.83491 0.254931 245917 208989 642981 -63433.1 56747.2 14858.7 
173 1 32.7305 29.1729 4.74437 0.039785 -619620 -526046 -19637.3 -546383 434433 99779.8 
2832 1 36.0919 31.0174 2.91752 0.456808 22054.3 248744 890078 -259253 -98770.8 -21388.7 
1353 1 21.9947 35.9139 0.884045 15.5905 368107 1.30051e+06 987034 175252 -75862.4 -128599 
115 1 23.7724 32.6474 2.83048 0.39212 -438890 -174522 797447 -456207 24330.7 -114727 
116 1 21.9246 34.2542 2.79797 19.6043 365123 1.04663e+06 1.50711e+06 49765.5 -2686.26 295621 
1355 1 23.7022 35.962 2.77122 0.49147 -585636 161008 819133 701939 -146235 87072.3 
177 1 21.9926 32.5984 4.7361 17.2246 63135.9 904162 936256 -20914.3 -144717 209809 
178 1 23.8363 34.2374 4.71345 0.551849 -260042 -83191 471815 119642 161943 -137892 
1357 1 25.6059 35.9789 0.852722 0.286416 122778 57419.9 1.17356e+06 112003 205851 260784 
118 1 27.4374 34.4174 0.892162 0.177063 -212175 -380273 866378 548108 174063 360949 
119 1 27.3529 32.6169 2.72514 0.342631 -313448 111493 886537 33616.3 24660.7 28623.6 
120 1 25.5461 34.2662 2.75184 0.324277 -71317.6 25493.8 542150 108056 107644 65232.1 
181 1 25.646 32.5384 4.72122 0.503809 523597 424593 467981 140001 -304419 113053 
182 1 27.3745 34.379 4.73357 0.32536 296271 73593.7 574936 -239130 78886.8 322247 
1429 1 25.4864 36.1338 4.65078 0.778048 514128 277066 1.36676e+06 243228 -65937.1 228542 
121 1 29.1651 32.735 0.863123 0.207673 55567.4 55528.3 682831 -23657.9 -117513 41734.8 
122 1 30.8581 34.4632 0.915584 0.311001 50184.9 10845 825415 -57779 -225184 70342.4 
123 1 30.9357 32.779 2.82849 0.252126 -480936 -337798 1.03605e+06 -49707.9 111889 356598 
124 1 29.1399 34.2778 2.94502 0.919025 -604455 -340543 449015 259444 235383 3347.87 
1363 1 30.8584 36.0985 2.88716 0.294862 251985 -112358 803130 686733 -59264.2 64731 
126 1 34.4833 34.533 0.890745 0.21772 -619995 -537482 635103 -95072 -241675 164337 
125 1 32.7737 32.7943 0.901169 0.325369 449436 422809 1.11864e+06 85360 85326.2 115888 
128 1 32.6531 34.4971 2.90596 0.145246 -148104 -193788 1.24657e+06 300022 -1338.62 190.31 
127 1 34.4024 32.7924 2.97518 0.491557 -67519.9 -210184 857999 267295 -33668.7 -37188.5 
131 1 24.0892 22.3221 6.75363 17.4267 425084 485417 1.14739e+06 -73154.4 -600399 -94880.7 
132 1 22.2451 23.8853 6.41185 19.2189 146235 234601 1.18027e+06 -150208 223150 2660.24 
194 1 24.3581 24.2127 8.50635 3.48133 -1.00775e+06 -243910 -268984 -430921 -212985 325810 
193 1 22.3495 22.7569 8.60854 24.218 583353 871617 702517 4786.97 -195083 31112.2 
135 1 27.479 22.2555 6.46504 14.8023 1.07358e+06 163122 1.19376e+06 -374581 276954 368701 
136 1 25.7648 24.137 6.51541 0.981125 -180500 -126916 12698.7 -314695 455034 255597 
197 1 25.9211 22.1516 8.52716 16.1557 1.40974e+06 653848 1.4776e+06 -317894 -65839.7 -123744 
198 1 27.5685 23.9714 8.57051 0.220101 -92546.7 -678560 1.18852e+06 -79906.6 288647 23211.7 
139 1 30.8943 22.01 6.57281 17.4632 527084 -185173 1.19811e+06 -166164 -278410 -26059.2 
140 1 29.3168 23.8115 6.76514 1.13238 -101319 -201571 631837 25285.1 -40907.9 -85072 
205 1 32.3912 21.9765 8.60357 16.2774 1.24712e+06 591916 1.64087e+06 285179 -29025.1 12517 
2937 1 36.0934 22.078 8.64972 17.741 1.45209e+06 593519 1.59785e+06 33820.3 92936.7 -20091.3 
144 1 32.4126 23.8379 6.60741 0.610632 493361 -647309 625806 -639468 -64857.7 -495640 
143 1 34.1986 21.9325 6.71004 17.2026 1.77488e+06 938434 1.75145e+06 -46810.6 -105893 -72428.8 
206 1 34.2281 23.7511 8.58984 0.19805 357855 -70541 1.32518e+06 -129500 -163225 256025 
2868 1 36.086 23.6397 6.55604 0.638711 402230 -72823.7 930605 -219267 -131493 -186952 
147 1 23.8125 25.6951 6.62129 1.91121 -553378 -477415 353096 311336 228165 -81640.9 
148 1 22.2072 27.4521 6.62526 14.9586 318744 640017 1.4483e+06 212300 73443.3 -174644 
210 1 24.1563 27.3839 8.55834 1.14773 -106813 253637 479651 121070 335737 52073.5 
209 1 22.2779 25.5049 8.52831 13.6758 239095 1.77382e+06 1.04542e+06 313481 465214 188109 
151 1 27.6319 25.7181 6.56 0.598898 -500938 -37990.7 -123032 -561382 286342 -62000.7 
152 1 25.6946 27.4003 6.61754 0.646704 216785 275638 54345.2 -395290 231187 138525 
214 1 27.4765 27.6222 8.55414 0.733528 -367909 -776842 47215.3 -932094 56539.9 344215 
213 1 26.0319 25.8368 8.50466 1.93534 -1.28556e+06 -1.91842e+06 352822 -788418 -71382.8 316225 
153 1 29.33 25.8029 4.76504 0.689434 -1.02285e+06 -841390 230603 -22697 -126776 173581 
155 1 30.8851 25.816 6.63852 1.02849 -351960 -281374 -186552 451637 -473420 139751 
156 1 29.2385 27.5236 6.76167 0.600136 -530256 -678292 460712 152833 83906.3 -360778 
218 1 31.1024 27.4495 8.59182 0.96228 -288826 -297494 465062 83552.5 -251713 -265318 
217 1 29.2259 25.7102 8.60029 0.272119 287279 48627 531822 -315754 -208880 -107023 
2955 1 35.992 25.3806 8.56506 0.65689 74923.2 278568 997054 -74811.9 135858 259614 
2886 1 36.0632 27.3092 6.70004 0.217202 607983 404342 1.16166e+06 -207543 -193632 175712 
160 1 32.8031 27.4209 6.69718 0.529106 -617125 -561915 237920 394372 102151 117460 
159 1 34.2144 25.5297 6.63131 0.532324 272381 -49214.2 590848 158054 -311943 80689.4 
221 1 32.5187 25.5455 8.55781 0.796397 64845.7 -613387 1.03887e+06 297403 -56338.9 149483 
163 1 23.88 29.2603 6.57651 0.451557 -213761 120916 769917 -495920 93553.6 318569 
164 1 21.9885 30.8397 6.58958 18.6297 -239129 845942 1.80481e+06 -477060 217004 217458 
226 1 23.8935 30.9906 8.63581 0.462705 -1.10085e+06 -836894 428018 780163 283096 163176 
225 1 22.2823 29.0613 8.60244 14.8432 513614 1.32338e+06 1.11818e+06 -69953.9 -53944.9 31428.7 
167 1 27.3124 29.189 6.71696 0.867996 317733 -409901 -69028.4 -9436.1 63960.7 258067 
168 1 25.5648 30.9649 6.67966 0.445605 -153288 -468183 450627 -95313.7 101335 477778 
230 1 27.4304 30.8614 8.60378 0.602896 -276237 12177.3 1.15597e+06 -222150 -42130.6 -96922.5 
229 1 25.5885 29.3219 8.54977 0.738221 -733787 -751612 165149 -215090 260820 251143 
170 1 31.0141 31.0473 4.77292 0.305206 -485116 -322016 404952 -102067 56943.2 225062 
171 1 31.0737 29.2181 6.56708 0.583611 -519682 -313507 465073 -375325 364273 -8900.79 
172 1 29.2631 30.971 6.62726 0.354173 661553 392537 336107 34855.5 -8506.83 411311 
233 1 29.3334 29.2859 8.5242 0.80085 -94843 -442263 793506 -496878 -64322.4 -137839 
174 1 34.3909 30.9627 4.79703 0.135089 -17167.6 -140012 169263 -63004.8 -2271.7 26066.2 
175 1 34.4822 29.2231 6.71939 0.428488 -238487 -211119 371430 -256560 239821 -104227 
176 1 32.6629 30.9566 6.74037 0.219851 -900409 -1.01779e+06 429982 -321492 -120974 -8574.44 
238 1 34.4288 30.9132 8.63682 0.263703 -517495 -301803 498537 -83916.4 -175572 -210232 
2901 1 36.0684 29.0685 4.81676 0.399832 2328.42 596141 335905 -23255.3 -184172 55197.6 
1427 1 23.8294 36.1077 6.77491 0.180037 -129787 179225 1.04852e+06 77373.6 -179498 136684 
179 1 23.6424 32.4647 6.62334 1.47221 -1.29626e+06 -866609 619959 17017.2 -33129.6 257554 
180 1 22.1911 34.3508 6.71152 15.7346 149915 497989 1.44803e+06 78246.4 135001 190684 
241 1 22.1163 32.5207 8.666 16.0896 -148242 1.11972e+06 1.36247e+06 586655 49097.8 178609 
1425 1 22.1485 36.0063 4.81872 15.3499 281365 1.31708e+06 1.37775e+06 188226 679.387 378988 
1431 1 27.168 36.0333 6.72372 1.08078 423299 589504 914646 90968 360042 61172.3 
183 1 27.3413 32.7577 6.57516 0.851431 -62548.1 466965 627282 -333525 -52226.9 255558 
184 1 25.3824 34.268 6.79019 1.48254 -4979.57 171895 494913 412088 246611 106935 
245 1 25.7051 32.6175 8.67967 0.787486 -18505.2 -486648 1.05944e+06 -123235 17149.1 208760 
1505 1 29.0925 36.1172 8.6769 0.185196 281370 -201708 341908 580410 33847.6 365675 
186 1 30.9842 34.5472 4.92203 0.57645 -416248 -382931 144928 360811 -6641.7 -322588 
185 1 29.2065 32.6517 4.796 0.183835 96501.5 -588494 49085 476018 464611 349454 
188 1 29.1277 34.4139 6.71026 0.177377 -40759.6 104931 248227 -374964 -153436 271945 
187 1 31.0513 32.7117 6.85508 0.691767 -125221 -446872 319877 224324 208030 -505936 
250 1 30.8329 34.3538 8.61526 0.540601 -219946 -532307 304194 -379740 32343.6 -400894 
249 1 29.0528 32.7349 8.65394 0.569247 566112 208337 1.15013e+06 -606358 -18442.9 170212 
1433 1 29.1052 36.1086 4.8741 0.382132 -200833 -528879 173998 -35692.7 -178013 -52472.1 
189 1 32.6817 32.7804 4.90825 0.294821 -451145 -306570 321991 -62751.7 55870.9 40433.8 
190 1 34.532 34.4999 4.84773 0.308053 -869434 -585231 492109 -386469 -245497 -67736.6 
191 1 34.3938 32.6912 6.72882 0.185112 -277202 -366518 332583 32493.8 -102374 -73825.7 
192 1 32.7362 34.5319 6.74954 0.408518 -251945 -644474 -122489 381083 -222188 -222327 
1509 1 32.5538 36.1307 8.64706 0.976246 109451 134679 225552 53527.6 36849 -167433 
195 1 24.0328 22.2699 10.3385 18.9793 525660 399114 1.7022e+06 -129602 -93911.3 19834.1 
196 1 22.4708 24.149 10.6612 16.7136 209682 468873 847459 -223275 -335781 -461337 
258 1 24.1744 24.0967 12.4636 0.804592 -1.63097e+06 -1.02988e+06 97894 -806927 11628.5 195162 
199 1 27.4377 22.1479 10.6278 16.6415 352775 -213496 625349 -457158 94121.1 -353134 
200 1 25.742 23.9877 10.4388 0.488989 -269682 -348234 288165 -192527 -514319 4086.98 
262 1 27.4126 23.8846 12.4334 0.554156 -695824 -834500 372238 -57165.8 494834 -243451 
261 1 25.6902 22.1415 12.4355 13.5766 1.22357e+06 276472 1.09766e+06 -143719 177069 33606.8 
202 1 30.8104 23.804 8.77712 0.597158 -113986 -306127 951117 -86035.3 -316553 -2712.51 
201 1 29.1116 22.0551 8.7175 16.6754 1.55235e+06 205372 1.69622e+06 -128758 111280 66163.9 
203 1 30.8733 21.9872 10.6728 16.7175 1.84918e+06 803438 1.66391e+06 -44239.9 -93981 20557.4 
204 1 29.0714 23.8426 10.6969 0.336864 -598203 -638973 444257 -981002 552623 -274894 
266 1 30.9189 23.7945 12.5833 0.404022 198223 -457217 785665 -76313.1 171489 144101 
2940 1 35.9614 23.8141 10.5196 0.589421 -162993 -548211 595652 78180.7 139717 33268.7 
208 1 32.546 23.9368 10.654 0.617867 130462 260081 769212 187315 4781.87 -141761 
207 1 34.1811 22.1339 10.5645 14.7425 1.40638e+06 60387 1.63936e+06 34268.2 158789 48137.7 
270 1 34.3607 23.8436 12.4829 0.245239 403885 368539 682994 -271354 249447 -75341.5 
211 1 24.1763 25.8717 10.5754 0.762686 -967058 -1.02881e+06 851962 -274791 -215720 352212 
212 1 22.2909 27.3014 10.4162 14.273 247515 1.3906e+06 1.71543e+06 450200 109045 220446 
273 1 22.3583 25.7356 12.5926 15.5116 94932.9 592907 948828 -106968 -233509 -362483 
215 1 27.4335 25.7603 10.5868 0.349777 155054 202548 437603 -15009.1 -94775.2 -71113 
216 1 25.7583 27.5837 10.5822 0.379602 -715299 -795683 896375 -1.03049e+06 -159512 48756.9 
278 1 27.539 27.4399 12.5852 0.427607 -523417 -585643 624887 -95128.4 -276269 -127492 
277 1 25.8245 25.8524 12.5174 0.372902 -633762 -543749 564925 -759459 2146.8 192642 
219 1 30.6686 25.6358 10.6873 1.26302 -298016 -515270 159147 52070.8 -20018.8 32595.2 
220 1 29.2316 27.5351 10.477 0.62323 -290224 -543140 1.14856e+06 302107 -284163 -109011 
282 1 30.7923 27.4002 12.5607 0.30718 473219 64840.2 919545 -152906 167413 13113.9 
281 1 29.1321 25.5888 12.5723 0.220333 -593601 -157068 175786 -234084 359531 -331350 
3027 1 36.0987 25.5471 12.4916 0.189958 -750100 31667 571645 -60644.7 -166235 -97114.1 
222 1 34.3349 27.2924 8.70741 0.383421 337160 206596 722439 95120.7 -314854 106116 
223 1 34.3328 25.6342 10.6196 0.404053 154434 79921.8 845500 -136382 -16189.6 339568 
224 1 32.472 27.4068 10.6606 0.564751 -390923 188772 753682 -90861.6 -115972 166526 
285 1 32.4765 25.5857 12.6008 0.375372 -88784.2 -362424 928864 -623637 136530 9685.91 
227 1 23.9022 29.2912 10.5477 0.693216 -894187 -1375.91 699246 -102275 159329 21865.3 
228 1 22.0848 30.834 10.6073 19.0018 19557.1 669740 1.40121e+06 182992 36493.5 401002 
290 1 23.8895 30.8353 12.6101 0.341826 -845624 -277647 573408 -165987 345660 -197184 
289 1 22.2106 29.132 12.4237 16.216 -116291 933194 1.48703e+06 -73092.7 186012 357679 
231 1 27.4741 29.1912 10.5576 0.361594 -456367 -450964 930008 -285274 -80632.2 -37900 
232 1 25.6387 30.8893 10.6537 0.386452 -93051.6 -109457 1.1056e+06 -557172 -106909 134835 
294 1 27.4162 31.0645 12.59 0.38069 349139 -3526.88 631237 66704.9 29351.7 147450 
234 1 31.0403 30.9062 8.77078 0.613183 -123148 -346844 573804 -626995 102231 -166227 
235 1 30.9163 29.2305 10.6919 0.437293 -436990 -664377 479144 65071.3 329128 -5052.76 
236 1 29.1602 31.0158 10.5881 0.387696 100920 90576.8 585272 -326469 2444.12 460636 
298 1 30.9761 30.9937 12.5128 0.343248 -441382 -469681 302352 -535471 -59423.4 -94664.7 
297 1 29.1821 29.3815 12.4528 1.07991 -175164 -92984.4 400942 -73504.8 206783 -8217.06 
3045 1 36.1016 28.9561 12.5212 0.467482 122782 466680 519755 115647 -165482 236592 
2976 1 36.0779 30.8143 10.5817 0.274473 262839 23792.6 713087 305389 -278292 -123561 
2973 1 36.1149 29.0502 8.70423 0.228451 394731 256316 930291 48466.1 -347031 -47626.9 
237 1 32.7615 29.1824 8.70352 0.355347 -399994 -809900 687198 -294639 77464.8 -61282.9 
240 1 32.8352 30.8509 10.6702 0.677028 -149831 -58185 328289 139702 -308493 -136262 
239 1 34.3108 28.9331 10.7582 1.09495 -213982 -77605.4 727764 56123.2 -410323 -44649 
1499 1 23.7703 36.1469 10.6392 0.227752 -660983 89829.4 809347 -40886 -260050 154819 
242 1 23.9406 34.3104 8.72249 0.643809 58751.4 745856 467958 160132 440835 258333 
243 1 23.7946 32.5801 10.6103 0.430084 -346952 -83024.4 593098 39123.4 98447.5 -68467.3 
244 1 22.1301 34.368 10.6605 16.7588 223661 1.10648e+06 1.54796e+06 -99828.6 -105947 76253.9 
246 1 27.2633 34.4516 8.71375 0.281953 205742 -261772 1.18852e+06 -178883 -122463 162180 
1503 1 27.3843 36.0909 10.737 0.342028 140571 -182552 482812 189384 180524 -48440.2 
247 1 27.2813 32.7613 10.7774 0.836381 250816 49817.5 831193 11398.8 -186432 168775 
248 1 25.4943 34.4088 10.7892 0.601911 -45614.8 118019 919764 359135 1849.91 -90739.8 
313 1 29.2432 32.8404 12.5364 0.495465 -357607 -107547 374966 101270 43919.4 171486 
314 1 31.0163 34.5043 12.582 0.194658 -75478.7 76170.1 886653 -79646.4 308785 156258 
251 1 31.0042 32.6151 10.557 0.500284 276110 125962 556701 -395063 242872 -30939.2 
252 1 29.1403 34.4204 10.6153 0.111935 144394 -88164.5 535822 -85260.4 204113 395483 
3063 1 36.133 32.6109 12.5457 0.117398 -470989 -154167 305593 304845 -117368 100581 
254 1 34.4356 34.3397 8.73071 0.505092 -106875 -19038 413656 -432205 -190472 -31572.2 
317 1 32.7375 32.65 12.5929 0.203622 -393495 -348787 638036 -343291 -20324.7 36236.5 
253 1 32.777 32.6689 8.74421 0.324651 -1.02331e+06 -383196 437860 -479993 97026.6 -124453 
318 1 34.4022 34.4171 12.5356 0.260653 -204233 -479083 738662 -67538.5 118557 -39123.1 
255 1 34.4887 32.7019 10.6633 0.294726 -233556 -538625 209267 -394968 -308134 33739.2 
256 1 32.6649 34.5064 10.6197 0.395397 -68347.7 65783 483319 126230 194075 5.46937 
2994 1 36.118 34.4495 10.6192 0.201042 -947648 -917044 594728 386353 -174836 181604 
257 1 22.8335 22.2492 12.6142 24.2386 553830 -203571 1.15371e+06 -661892 42998.9 -362676 
260 1 22.6741 23.9084 14.3886 12.796 1789.77 -646068 -14923.4 -757048 42851.2 112499 
259 1 24.3396 22.0043 14.5859 19.5551 381849 656475 677981 -103373 19626.5 21542 
322 1 24.1374 24.1463 16.3923 1.44923 -1.04427e+06 -996106 73594.8 -350014 -179730 228776 
321 1 22.54 22.3266 16.2217 30.3085 690737 393266 839283 -144196 207217 269405 
263 1 27.0581 22.1103 14.558 12.6254 1.28141e+06 180184 1.32963e+06 450804 -89842.8 -104760 
264 1 25.7203 24.0776 14.3989 1.18708 -65647 -459223 698516 109081 -99485.3 121358 
326 1 27.4504 23.8873 16.4284 0.511001 -303635 -589033 479383 -419098 -69522.1 176900 
265 1 28.925 22.0548 12.6558 14.2682 1.46197e+06 17445.8 1.21414e+06 468523 -407310 -194898 
267 1 30.8667 22.0721 14.469 17.0077 763226 158133 1.18984e+06 571245 -23905.9 226038 
268 1 29.1084 23.6814 14.5057 0.922876 129640 -425695 659055 459307 181011 -96842.9 
330 1 30.8723 23.8435 16.4261 0.0916678 1.00126e+06 -25601 961495 298352 -104625 308582 
329 1 29.0578 22.0451 16.4115 16.8767 1.35255e+06 304311 1.3309e+06 206223 48603.8 263668 
3012 1 36.1169 23.7397 14.5131 0.241407 81141.1 -685731 1.02109e+06 126110 -32389 -101153 
269 1 32.5888 22.0061 12.6168 17.4141 1.10421e+06 588186 1.68338e+06 224254 286247 -85224.7 
272 1 32.7505 23.8533 14.4944 0.590299 361992 88796.2 610283 -430447 -266117 174705 
271 1 34.4579 21.9838 14.6028 18.0211 1.38257e+06 449307 1.75209e+06 -254449 169447 -183182 
333 1 32.5946 22.0543 16.3445 16.9648 705485 141757 1.47505e+06 -125039 163738 86171 
334 1 34.2854 23.7686 16.4646 0.587646 156930 -155978 709031 -457535 -107257 63064.5 
274 1 24.0043 27.5282 12.6349 0.446966 -502595 -83540.8 1.09454e+06 -26976 35424.3 78553.6 
276 1 22.1249 27.4328 14.4729 20.6162 212818 849175 1.31771e+06 119265 141553 -83565.1 
275 1 23.9679 25.858 14.5337 0.767271 -825722 -869656 336281 -336537 -161333 336279 
337 1 22.214 25.6958 16.3338 16.8719 -69712.1 770566 663516 29763.8 301905 928387 
279 1 27.5396 25.6417 14.5533 0.426336 -571896 -727123 563232 -989586 11706.6 334597 
280 1 25.823 27.5408 14.5493 0.360421 1751.18 -273046 319047 -455791 -103672 149595 
341 1 25.7997 25.8208 16.4679 0.301294 -335371 -297243 906904 -616100 79496.1 -118061 
283 1 30.78 25.5636 14.5168 0.31219 784100 873076 675059 -96709.7 88835.9 18416 
284 1 29.0165 27.4312 14.5876 0.594738 -567903 -607606 650383 -300954 -248776 -70849 
346 1 30.8438 27.4056 16.4142 0.424024 -300401 -15512.3 423019 -639457 342322 41259 
345 1 29.1172 25.6234 16.5251 0.316989 -118438 71992.9 415586 -435631 39517.6 264771 
3030 1 36.0668 27.343 14.4563 0.321245 -194274 -290105 882140 189594 -151712 189442 
286 1 34.2629 27.2442 12.6511 0.556977 118123 111738 720057 -142416 -126715 255563 
287 1 34.4497 25.525 14.5678 0.519718 -312531 -372725 699247 -473075 85821.9 281868 
288 1 32.6461 27.3798 14.6591 0.334708 511523 127962 44304 52750.8 559732 203825 
3099 1 36.0308 25.527 16.5244 0.543086 133894 289239 617971 47981.6 17652.9 -9547.6 
349 1 32.6994 25.6678 16.4209 0.461521 585954 298840 867282 203508 250383 250805 
291 1 23.9052 29.141 14.6563 0.665466 -663361 -14335.9 603868 36591.8 -169063 42800.8 
292 1 22.2904 30.9428 14.4627 15.0725 -160126 892437 931035 146235 318104 196693 
353 1 22.1997 29.057 16.5121 14.8932 41309.4 1.24788e+06 1.34631e+06 364739 93647.1 79417.9 
293 1 25.8101 29.1806 12.6219 0.417477 181103 -226420 599634 -163028 -154088 81285.2 
295 1 27.4796 29.2464 14.5307 0.306538 -695882 -648960 683038 55835.6 -288141 122970 
296 1 25.6364 30.8795 14.5643 0.337638 153903 -245761 670194 420766 -72678.7 273146 
357 1 25.6033 29.2298 16.4521 0.454031 -53183.4 -227131 579756 -279063 -219112 172720 
361 1 29.1218 29.3273 16.5233 0.583669 -749900 -39829.9 369655 -300379 185697 24300 
299 1 30.8334 29.1703 14.611 0.411396 -341553 -604375 474659 411133 180516 55903.6 
300 1 29.3286 30.9568 14.4686 0.646995 -91833.1 -513813 785385 269084 -43570.2 -114218 
362 1 31.0241 30.8903 16.4658 0.596747 -454759 -351132 -86994.2 -255945 -277180 -965.587 
3048 1 36.1247 30.8602 14.4741 0.167685 -407488 -497870 628120 -113682 -87020.4 110229 
304 1 32.5784 30.924 14.5177 0.447088 -271897 -323383 370563 -73762.1 334411 -157448 
303 1 34.4256 29.1695 14.6334 0.491286 -186328 15854 708742 -235206 -260555 214338 
301 1 32.609 29.1243 12.7791 0.757575 -26872.8 -246860 666276 -204942 124649 -76399.7 
302 1 34.3485 30.8051 12.6267 0.320639 -193725 -72069.8 303005 -70725 -346501 -12213.1 
365 1 32.5883 29.0264 16.4983 0.588967 -684031 -465366 339914 146849 211924 -350383 
308 1 22.1229 34.4559 14.6502 16.3523 497980 1.19454e+06 1.29428e+06 -344818 16306.3 46475.5 
307 1 24.0093 32.6768 14.5946 0.63017 -959526 -444471 -130231 -385501 486545 141659 