ITEM: TIMESTEP
4800000
ITEM: NUMBER OF ATOMS
5780
ITEM: BOX BOUNDS pp pp pp
1.4895945679682465e+00 7.0810405432047304e+01
1.4895945679682465e+00 7.0810405432047304e+01
-1.0953117364167890e+00 7.3395311736432333e+01
ITEM: ATOMS id type x y z c_csym c_2[1] c_2[2] c_2[3] c_2[4] c_2[5] c_2[6] 
3 1 23.7221 21.8286 0.657552 15.5391 374382 677042 866152 -281771 -316300 190859 
4 1 21.8412 23.5687 1.00886 15.9628 1.09661e+06 689138 1.25416e+06 61185.5 -26195.9 -71434.1 
1 1 21.8974 22.1539 -0.951497 26.8607 394513 421146 963061 -147955 -194926 -177812 
2 1 23.6613 23.7759 -1.08907 0.721459 -408895 -868452 437202 -611443 -326043 741348 
7 1 27.0917 21.7488 0.815189 16.4307 993836 774213 1.04177e+06 23977.2 298746 -186636 
8 1 25.3736 23.6797 0.72697 0.396266 -48987.7 -61026.6 304070 -199335 -147608 45446 
6 1 27.0808 23.7428 -1.0735 0.364461 -184617 308269 83890.4 -200110 28713.2 -61390.6 
70 1 27.1218 23.6368 2.56362 0.365258 -73672.4 -448636 538268 152373 74511.4 318723 
69 1 25.3307 21.7795 2.51152 14.9864 900937 613432 648385 50172.2 193090 139084 
11 1 30.7585 21.6893 0.66567 18.3694 1.765e+06 1.2683e+06 1.47979e+06 -54704.3 146847 -22895.2 
12 1 28.8522 23.6691 0.711943 0.40848 319214 34084.5 243991 -489079 -148248 467879 
74 1 30.7392 23.5344 2.52555 0.387378 263704 -281534 881495 -654500 -34508.1 237755 
73 1 28.9634 21.9705 2.55418 15.3025 579695 -132228 1.03035e+06 -359082 112351 100003 
9 1 28.779 21.8544 -1.0826 14.9264 1.29485e+06 406370 894625 97690.3 187187 94031.6 
15 1 34.3328 21.8884 0.739302 16.0178 396899 19325.3 754208 254580 753014 30018 
16 1 32.6795 23.654 0.705308 0.848146 -161669 -645104 67641.4 246593 107039 687980 
77 1 32.5972 21.7763 2.4298 14.7257 1.21583e+06 581302 1.42706e+06 -134371 288996 180130 
19 1 23.6499 25.4589 1.03267 0.921506 -101582 517713 377705 58781.7 -273062 -80553.1 
20 1 21.8379 27.3791 0.895262 17.0512 -4802.91 919736 607949 -349426 104353 -189834 
17 1 21.8312 25.4746 -0.806281 14.6398 292785 898953 950038 -129407 100198 -323761 
18 1 23.4128 27.3657 -0.982514 0.850933 -560400 53177.6 350490 -136065 81183.2 -256437 
23 1 27.0651 25.5059 0.750562 0.314553 -276413 -388823 62197.4 76191.8 233289 -67679.1 
24 1 25.3783 27.2693 0.805985 0.247653 51957.1 -405294 -166445 226194 -208945 103344 
22 1 27.2118 27.3344 -1.01785 0.477504 -286382 -208701 -142857 97127.4 -61503.6 336586 
86 1 27.1525 27.3004 2.60238 0.254609 -445267 -796221 189737 -613320 149956 38857.6 
21 1 25.2384 25.5795 -1.06212 0.708947 296268 104334 403736 -409044 -420466 128224 
27 1 30.7007 25.2331 0.777136 0.641652 55980.4 -196765 275793 -319156 -300008 291368 
28 1 28.9667 27.167 0.763327 0.19753 -422163 254052 -82883.1 -51014 -217733 -251988 
90 1 30.6423 27.1162 2.59007 0.336467 69694.5 587380 116902 -9676.73 70300.1 258286 
25 1 28.9758 25.4064 -1.06594 0.200041 -107368 -401026 -527145 -251673 52604.2 -69215.4 
26 1 30.7696 27.1446 -0.977984 0.316971 -188888 279816 -205340 -286431 -134040 -204370 
31 1 34.3841 25.3284 0.787835 0.313306 -276065 12906.3 -65056.7 -565889 -246886 7940.12 
32 1 32.4145 27.1332 0.765557 0.331074 47882.9 552301 55502.3 -148110 -316736 10657.1 
94 1 34.3154 27.1146 2.5886 0.237528 -18921.6 195767 100652 -45014.1 218698 52363.8 
2811 1 36.0818 25.3439 2.60164 0.318823 -949385 -519391 -932432 -157569 226793 70406.3 
29 1 32.5864 25.286 -1.04839 0.356866 183930 -384002 -50334.2 126081 -6810.07 463458 
2742 1 36.1128 27.2278 0.847997 0.295716 -732225 -236635 -552079 138945 446092 -247967 
30 1 34.2949 27.2215 -1.01885 0.15328 -147677 -22958.9 436058 272186 144433 -99092.6 
2739 1 36.0449 25.5135 -1.04843 0.379496 -446465 -177503 312593 195542 266957 -88785.2 
35 1 23.5888 29.1137 0.788736 0.122951 -276151 -173863 174752 -172256 -186160 -67525 
36 1 21.9356 31.0117 0.840825 15.781 183973 728809 951760 -106731 -14420.4 -311706 
34 1 23.7317 30.8619 -1.01182 0.376227 -274550 275025 168574 -385561 106313 78202.6 
33 1 21.7433 29.1936 -0.951426 18.4168 381559 1.06626e+06 1.31869e+06 335010 -223109 99822 
39 1 27.2666 29.0236 0.82322 0.495426 -576319 -343907 -525557 -196349 -193512 140807 
40 1 25.4911 30.8291 0.726349 0.259059 -44011.6 22756.6 -167102 -298159 -145673 148777 
102 1 27.1944 31.0123 2.62306 0.847479 -425046 -116515 344655 362576 -70563 -234023 
37 1 25.3863 28.937 -1.08269 0.526607 -276866 -444651 12760.1 223547 69687.2 -107168 
101 1 25.3862 29.0968 2.58885 0.191479 292945 120382 300523 456524 185270 223152 
43 1 30.692 29.0095 0.766516 0.10993 -276796 -252903 306750 -190560 -75363.7 -183497 
44 1 28.9323 30.7955 0.723887 0.131164 -233654 -549319 92081.5 -258282 -111853 34443.7 
106 1 30.639 30.8357 2.60429 0.351917 73472.5 34389.1 -47273.5 116850 327915 54425.9 
105 1 28.8302 29.0001 2.62176 0.636451 -413667 232543 -135567 -589747 -64966.5 -90419.7 
41 1 28.9705 29.0354 -1.0924 0.120915 -688319 96312.3 -92346.7 -458687 63263.3 -110278 
2829 1 35.9785 29.0425 2.55895 0.635539 -284351 -191552 -318105 282620 -518092 9830.28 
47 1 34.2435 28.9256 0.836906 0.153823 -660893 -256682 -765438 371878 -309687 30323.4 
48 1 32.4843 30.6765 0.813204 0.233903 -323397 -652158 -206875 -12466.3 110291 -102079 
109 1 32.4932 28.9707 2.60935 0.132754 170307 317269 70299.6 -317816 468798 367835 
46 1 34.307 30.7132 -0.969949 0.332597 -214346 -310594 520784 50544.9 47436.4 -15263.6 
45 1 32.5263 29.0141 -0.97971 0.384446 -260091 -351254 -15905.5 -27751.8 -131206 -116618 
2760 1 36.113 30.7655 0.802544 0.0952203 171257 127552 -110633 -163537 -360317 230765 
2757 1 36.0539 29.0112 -1.08575 0.210283 -96316.5 -299792 196761 296106 -24662.8 -44399.3 
51 1 23.6616 32.7651 0.777089 0.251287 80099.8 107629 163842 -339322 -97590 -549194 
52 1 21.8432 34.5429 0.738552 17.3751 487620 739883 557818 142376 56911.4 -631723 
113 1 21.7975 32.77 2.56419 17.2331 651726 1.30388e+06 1.1464e+06 -290554 139828 -391848 
50 1 23.746 34.675 -1.05046 0.919749 -40589.5 540664 238488 -140353 111181 -196694 
1353 1 21.681 36.1118 2.52905 10.6542 1.06095e+06 1.1774e+06 868195 83203.6 -53423.9 -374934 
114 1 23.7259 34.4035 2.52564 0.562468 460392 -11775.6 338718 -54445.8 116926 -753546 
49 1 21.8861 32.7878 -1.0193 16.466 862126 1.34802e+06 1.03691e+06 -9798.09 -184590 95735.7 
55 1 27.1909 32.6248 0.580717 0.62376 -150388 -299377 -100686 -53853.5 -3054.43 49111 
56 1 25.5308 34.5292 0.738947 0.2709 -242300 249378 17651.9 -155087 -223467 286219 
118 1 27.2529 34.3927 2.50385 0.484555 98990.3 310992 603716 44774.8 -195292 188214 
60 1 29.0832 34.445 0.737426 0.265802 -174035 -47712.6 -51586.8 120574 15565.2 278112 
59 1 30.755 32.5166 0.718434 0.223939 36846.8 109716 394671 -124407 196954 133666 
121 1 28.9934 32.6444 2.54753 0.176109 -563578 -660212 548282 -61336.3 253858 161306 
64 1 32.4575 34.3955 0.835567 0.432096 679242 314977 510480 152201 -147159 -200965 
63 1 34.2111 32.5581 0.788309 0.210172 227377 464366 318170 -95441.9 -107392 -403209 
61 1 32.5778 32.557 -1.05425 0.257868 -72359.5 717920 287657 -28341.5 -130332 50196.4 
1293 1 32.526 36.114 -1.07915 0.368049 -191954 -180152 678239 -146391 91180.7 -183088 
2778 1 36.0433 34.3143 0.804487 0.190648 83922.6 29141.6 142416 41894.8 -17624.8 -102484 
4161 1 36.1113 36.1023 -1.06315 0.18328 -890762 -266380 233048 375137 145105 20482.9 
4242 1 36.0233 36.1307 2.599 0.247605 -4574.23 49825.4 -212474 58683.4 61618.4 -287594 
2775 1 36.0506 32.5499 -1.04693 0.160993 234453 269439 555527 -50200.1 10331.3 256311 
66 1 23.7975 23.773 2.87631 1.67583 -630950 -454078 -104992 -676905 333381 244831 
65 1 22.2223 21.9041 2.73637 25.5413 840419 224284 979434 -71967.8 -158317 4729.73 
67 1 23.9259 21.8192 4.57064 15.2825 172017 98594 114919 -111270 -203529 -68038.9 
68 1 22.0901 23.589 4.53154 16.6832 -53716.5 820059 955995 -275822 463050 -215952 
71 1 27.1244 21.9438 4.37853 14.0401 743935 -388529 487824 21516.5 393064 -100253 
72 1 25.5015 23.74 4.60655 0.6968 -1.33892e+06 -717057 -615500 -317571 -327992 -37676.9 
134 1 27.2227 23.5229 6.29241 0.774724 -348531 -577046 -484391 -79745.1 -62271.5 -189635 
133 1 25.5989 21.7377 6.30983 16.2105 661284 147247 346658 -380292 -218183 36159.3 
75 1 30.7829 21.7236 4.52848 18.8165 1.84914e+06 506913 1.98916e+06 -244771 -78532.3 -299081 
76 1 28.9771 23.5485 4.55353 0.586588 576589 404046 909955 -572661 268338 -13863.6 
78 1 34.3016 23.609 2.67072 0.301886 -293808 -445619 187720 -294790 -468614 -139375 
2793 1 35.9557 21.7631 2.83243 14.3071 1.04975e+06 415806 1.33035e+06 187469 29419.4 -227214 
79 1 34.2603 21.7797 4.59662 15.5898 1.0962e+06 379068 1.03595e+06 233165 281006 -229973 
80 1 32.4811 23.5011 4.51631 0.298583 580099 -55591.5 807359 30443.9 148199 -307097 
2865 1 36.1346 21.7795 6.31969 15.7419 600239 408713 1.04317e+06 147108 629447 19820.9 
2796 1 36.022 23.7009 4.46584 0.593247 -495681 -333160 -112856 567980 -146383 83712.2 
81 1 21.7812 25.4841 2.75492 12.9898 516701 1.58663e+06 1.50789e+06 -219803 54765.8 9418.23 
82 1 23.5268 27.3159 2.70461 0.24863 -228257 -164326 -229880 -6454.76 -447295 -485913 
83 1 23.5918 25.563 4.55686 0.533499 -279002 -263955 124219 -427595 149902 -323605 
84 1 21.8209 27.3682 4.65726 16.9844 47075.1 878254 1.17854e+06 -55658.2 -20452.9 26049.6 
85 1 25.4725 25.5028 2.65142 0.461991 -638648 -667704 -323682 -618358 -196875 -31308.6 
87 1 27.1014 25.509 4.6229 0.748416 -378927 99833.6 150861 -364406 197657 -119462 
88 1 25.3714 27.2648 4.41995 0.385566 -406700 -49209.4 347686 228865 101502 -77270.2 
150 1 27.1999 27.2954 6.35239 0.264373 -2415.36 -460350 286394 217960 46112.5 -198734 
89 1 28.8119 25.3916 2.77089 0.979388 258387 417305 691162 -504159 -235965 -60307.6 
91 1 30.7086 25.3556 4.42473 0.463696 -553697 59181.7 215189 118805 42153.7 -34619.8 
92 1 29.1104 27.1835 4.56778 0.810313 212618 -264606 -19992.4 256141 234394 -88616.6 
93 1 32.4658 25.3542 2.71432 0.456042 57434.7 -111185 150872 -46206.8 180499 -458200 
95 1 34.3106 25.3697 4.58298 0.363228 -346351 -406653 274363 658401 64696 -390785 
96 1 32.5325 27.077 4.39622 0.449384 216165 -16730.1 318483 30599.8 97148.5 -366178 
157 1 32.4387 25.1814 6.30087 0.950501 174352 453933 392977 177378 230041 -295486 
158 1 34.3014 27.119 6.32678 0.169411 572709 -38286.4 -5915.56 519782 193598 82588.2 
2814 1 36.068 27.172 4.46306 0.11973 -762768 -218152 173971 258906 332351 63591.3 
98 1 23.7397 30.9227 2.64006 0.301575 -160201 26690.6 381977 -177031 -10198.6 -187561 
97 1 21.8491 29.1461 2.72601 18.2333 212488 758187 888689 305935 -251954 -416758 
99 1 23.6411 29.0428 4.42777 0.493345 -433165 -529747 11288.4 343276 -106713 -402971 
100 1 22.0035 30.8665 4.52316 16.5189 -75503.9 540877 895990 -66702 -50135.7 -644734 
162 1 23.7965 30.7371 6.28667 0.961228 -1.24408e+06 -65229.7 -225704 445578 106086 101024 
103 1 27.2785 29.0192 4.51642 0.256276 386588 679909 253184 -195174 455136 40099.8 
104 1 25.4553 30.9174 4.56451 0.255227 188651 353804 -206319 -71554.7 478420 118752 
107 1 30.8396 29.0416 4.48465 0.417458 165974 371762 617603 -364459 167203 -31388.2 
108 1 29.0034 30.8412 4.46538 0.175778 -30298.8 255258 705801 -74102.5 195719 11716.2 
110 1 34.2137 30.711 2.69288 0.179288 -407193 -242040 501583 276568 -127499 -169743 
111 1 34.3326 28.9145 4.58022 0.412413 386342 -50429.8 354506 74730.6 79108 53342.2 
112 1 32.5029 30.8134 4.58323 0.178216 -254144 -379585 116529 -438642 277671 307371 
2832 1 36.0077 30.8148 4.52825 0.287614 -572557 -858913 71782.4 421117 -17544 151674 
1425 1 21.863 36.1136 6.28301 17.1951 493267 620713 1.01611e+06 -46229.6 -44177 -273650 
115 1 23.6361 32.6612 4.47339 0.336559 -281601 -210194 491499 -296488 257382 -359762 
116 1 21.8981 34.4938 4.46047 15.0072 237079 693036 940179 -260105 -89623.4 -424408 
1359 1 27.2115 36.1457 4.51415 0.175975 -99308.5 102777 343476 -220601 -321015 289495 
117 1 25.485 32.6167 2.63746 0.234882 -631481 -491195 859062 345782 -54990.1 105736 
119 1 27.3174 32.65 4.52242 0.278333 51616.7 188434 512414 -116125 -1586.55 -346057 
120 1 25.4272 34.4013 4.60969 0.497907 376575 125126 672219 -264303 -260533 -123547 
122 1 30.7033 34.4132 2.65517 0.21901 -203767 407945 212304 -31914.1 -37623.7 117282 
123 1 30.7651 32.5915 4.4927 0.119075 -384783 -590567 77164 -288615 71905.8 -151849 
124 1 29.0107 34.4389 4.53408 0.198558 -83191.8 199643 286347 100876 -58239 181124 
186 1 30.7345 34.3533 6.30021 0.402323 -477555 -253515 -89468.5 -263592 -194880 215285 
1437 1 32.6582 36.0951 6.25552 0.55188 -484820 -39075.8 -93126 -46175 -280894 -25696.3 
126 1 34.2626 34.3256 2.63715 0.0935407 -185103 110647 192513 -108155 -95097.7 -106013 
125 1 32.5193 32.5246 2.69947 0.180488 -45067.4 -57272.8 76218.3 -108480 252641 -44740.1 
2919 1 36.0528 32.6604 6.2595 0.686779 -688919 -607522 -832661 875245 -80922.7 -9057.83 
127 1 34.2761 32.5656 4.5469 0.120879 -1.05196e+06 -687213 -284248 -175565 -233135 -234738 
128 1 32.4804 34.3239 4.46423 0.261332 -85250 -153907 -159957 -90801.1 50680.9 -351549 
2850 1 36.087 34.1706 4.3808 0.90284 -528565 -717428 -832854 -112095 220851 117590 
190 1 34.3201 34.2852 6.32575 0.139993 -755723 -1.0176e+06 128949 446519 -161080 -681336 
2847 1 36.0825 32.5098 2.67255 0.150823 68363.8 -612672 -300543 10583.6 25970 -454488 
4323 1 36.093 36.0843 6.28483 0.122329 -808377 -51722.3 442918 -132744 -68697.4 33323.7 
130 1 23.8495 23.6261 6.35834 0.293616 -274915 -381750 146305 -703005 30903.1 -359630 
129 1 22.3242 21.6837 6.43547 31.8708 740926 1.06568e+06 1.49464e+06 -59506.3 -51384 -13709.8 
131 1 23.9103 21.8348 8.31793 15.7629 472022 615872 531792 -532498 -440300 75279.1 
132 1 21.9156 23.6326 8.27161 19.3831 645704 1.18789e+06 1.83381e+06 -568703 -241473 -46687.7 
135 1 27.2288 21.8484 8.26706 16.6563 896365 217239 789970 263846 256157 -70984 
136 1 25.5409 23.6307 8.21967 0.308959 -817820 -785408 400030 -447557 -393093 77874.4 
138 1 30.7581 23.3367 6.44573 1.19226 234338 269443 684789 -187636 164543 -244736 
137 1 28.8558 21.7086 6.50784 15.6784 1.14074e+06 327027 1.40434e+06 132757 498559 -70984.3 
139 1 30.7224 21.7032 8.45772 16.5644 1.36197e+06 650687 1.2418e+06 -85434.1 146498 128500 
140 1 29.0206 23.6587 8.24385 0.417203 -92109.5 -243017 614453 -103951 124728 -256350 
142 1 34.3782 23.501 6.40422 0.564548 518187 -144790 126336 245889 -121073 149275 
141 1 32.5712 21.7338 6.60474 16.4935 1.00667e+06 332568 1.50344e+06 262223 -25272.4 -283571 
143 1 34.4654 21.91 8.29768 14.4527 1.15515e+06 -163577 489805 71402.7 -140929 -197516 
144 1 32.5045 23.5166 8.35571 0.392429 272301 -685502 209141 333392 -114852 -511961 
206 1 34.439 23.5363 10.0731 0.533605 472133 -72584.4 473964 -174633 -420766 -761735 
145 1 21.9468 25.5277 6.39444 16.1598 519759 1.42834e+06 1.00151e+06 -190731 97167.6 23487.5 
146 1 23.7318 27.3692 6.36716 0.524253 -513247 366667 10197.3 78161.4 -1715.69 -151333 
147 1 23.6729 25.3208 8.22901 0.983781 -287517 157948 -51086.3 -338172 224656 328104 
148 1 21.9746 27.372 8.12974 14.6514 340095 166385 178643 -337014 239340 342942 
209 1 21.7711 25.5519 9.93056 16.8993 607346 1.15857e+06 1.23271e+06 48618.3 104347 -124245 
149 1 25.3925 25.464 6.4123 0.236252 -351214 -453798 -468572 -451721 274513 -400463 
151 1 27.2266 25.3138 8.12041 0.740339 -894530 75082.1 -53923.1 -260773 407930 109811 
152 1 25.3743 27.2051 8.20955 0.549384 659781 443410 36276.7 -108623 24390.9 -64507 
213 1 25.6155 25.4802 10.0447 0.738129 -99763.6 -489993 223391 33259.7 132333 83830.7 
154 1 30.8615 27.1082 6.36711 0.459474 -409380 72461.5 248701 -193667 -530204 -64898.4 
153 1 28.9493 25.5354 6.42078 0.964571 172710 433614 125539 -241048 315242 266182 
155 1 30.8298 25.3056 8.23836 0.421195 -598524 -74286.2 -191037 -195379 86337.1 61005.2 
156 1 28.9761 27.2445 8.25527 0.316158 -144436 -480250 -321616 160577 -70548.9 247143 
218 1 30.7389 27.1456 10.0362 0.271172 -234093 -338493 -119030 -464899 86941.6 166490 
217 1 29.0514 25.4695 9.96952 0.606685 -514447 -952979 -119202 59489.3 113283 -91428.6 
2883 1 36.1135 25.4951 6.40812 0.365845 -522963 -771656 -77823.4 409062 -185203 301660 
2886 1 36.1285 27.2085 8.25568 0.0984943 361363 234848 291379 251723 199348 -602817 
159 1 34.2225 25.4356 8.2148 0.629601 449061 515703 350489 119789 557710 115988 
160 1 32.4899 27.233 8.17363 0.373948 -439560 -58724.2 205647 81869.8 -184307 338060 
221 1 32.5518 25.3327 9.9886 0.432332 -265445 421394 -87040.4 -268692 250666 -374925 
222 1 34.3495 27.1849 10.0548 0.148338 135225 43986 202758 -24605.4 206243 189368 
161 1 21.8673 29.0592 6.49572 16.6347 321933 -6317.39 -12299.4 102101 -280393 -106820 
163 1 23.6667 29.1519 8.27292 0.532651 -1.16604e+06 -819687 85000.9 369432 79952.1 -314858 
164 1 21.9405 30.7045 8.23097 15.17 -271963 -90921.1 459267 658591 -278046 -168896 
225 1 21.8817 28.9662 10.0454 16.7967 291231 600280 406617 -8420.05 199954 -143307 
166 1 27.2915 30.809 6.48937 0.414729 -386746 157449 260943 -315783 -394352 -104518 
165 1 25.5425 29.1298 6.39742 0.408658 -704629 -592989 747758 314306 87355 94532.2 
167 1 27.2942 28.9741 8.28808 0.390716 -18253.1 77566.7 -80193.3 272789 211307 43393.6 
168 1 25.4285 30.9319 8.21352 0.441539 68679.1 -179373 -107426 -203493 -8541.37 -44116.3 
169 1 29.0645 28.9597 6.37249 0.186084 249732 179543 247901 -227442 -91945.7 -138209 
170 1 30.758 30.8465 6.40384 0.0873762 -122255 -2084.96 72191.3 -138783 421550 -180653 
171 1 30.7518 28.9891 8.27975 0.199076 -2105.39 -194853 76726.5 144595 144858 -112434 
172 1 29.0109 30.8499 8.16314 0.258512 -731790 -163448 -295171 135495 -259766 86043.5 
234 1 30.7954 30.7804 10.0025 0.427765 -214791 -394178 452902 -688036 59456.7 -233392 
173 1 32.4988 28.9942 6.36222 0.141783 -43774.2 5962.76 184799 -293582 -139738 477318 
174 1 34.3038 30.7065 6.36967 0.282495 -81546.3 88009.6 -201474 17717.6 46519.5 1327.13 
2904 1 36.113 30.8182 8.19391 0.224686 -481251 -160198 167316 177666 239166 -268834 
2901 1 36.1386 29.0329 6.3562 0.254829 13120.5 163343 38454.1 251067 -21567.8 22694 
175 1 34.2936 28.931 8.20009 0.166419 227306 233394 420173 -4639.19 -98576.5 265232 
176 1 32.5671 30.8373 8.25548 0.249719 -430907 78150.6 279721 -610203 197950 -118006 
2973 1 36.1352 28.9239 10.0353 0.400913 126189 -195066 404003 -328254 77118.1 -105081 
177 1 21.9933 32.4815 6.41979 14.6959 -268451 484713 627215 -525304 -219485 -235555 
178 1 23.54 34.2622 6.41327 0.669949 -844594 -555550 -110393 -322505 -109680 -25297.7 
180 1 21.81 34.3921 8.2271 18.2213 133827 853777 1.09585e+06 -141364 175200 93633.2 
179 1 23.6101 32.6374 8.25331 0.263746 -820258 -204010 50740.4 -229830 -285161 411843 
1427 1 23.556 36.1181 8.25613 0.18183 -464097 40795.9 315190 125377 133199 -441685 
241 1 21.7638 32.609 10.0298 18.6717 613205 1.19008e+06 1.45459e+06 -221135 159679 72140.3 
182 1 27.1863 34.4991 6.41621 0.229344 -146050 -112104 180108 -185973 -31560.3 13457.8 
181 1 25.4601 32.6129 6.39761 0.104712 535817 -527622 -169391 -48144 45271 -73778.2 
183 1 27.2987 32.6276 8.29529 0.382067 117572 321570 254518 120408 -48074.8 94232.3 
184 1 25.318 34.3222 8.19241 0.424466 162916 -70922.7 422128 -339271 -24581.5 -163745 
1429 1 25.2935 36.1388 6.37303 0.304743 591331 230490 551882 13407.3 16995 -190534 
185 1 29.0034 32.7146 6.44205 0.283512 -710067 -116917 -145140 -445038 -364795 460174 
188 1 29.032 34.5963 8.33355 0.813479 298201 -134289 248680 -67572.1 -180112 -146495 
187 1 30.7258 32.6812 8.12238 0.518893 -535361 -216572 -447911 -414330 -157889 73161.1 
249 1 29.0348 32.6753 10.0751 0.222769 326409 468306 383014 -216727 -257024 -177953 
4404 1 36.0659 35.9933 9.97237 0.590533 -240774 -176923 -153205 5778.57 191685 91484.3 
2922 1 35.9909 34.2434 8.2352 0.571134 -139301 -1.10585e+06 -326010 624941 -135234 77937.3 
2991 1 35.9772 32.6555 10.0052 0.668948 -143984 -439393 -606985 89938 -353578 374220 
1439 1 34.3247 36.0361 8.08634 0.474644 -283621 -347853 -339590 39656.5 -192336 54513.3 
189 1 32.4957 32.6413 6.37434 0.189172 -588073 -444689 -319986 -320788 165798 -190040 
191 1 34.2807 32.4473 8.29068 0.646311 -817974 -557487 125904 -698520 -522775 45127.9 
192 1 32.4887 34.3838 8.22214 0.220697 -337853 -162712 102194 -360657 -149560 -154110 
254 1 34.1555 34.3695 10.0608 0.524449 -396925 13562 -88487.4 -89161.3 114976 -111889 
193 1 22.2815 21.9097 10.1904 27.184 387585 236619 691910 -407901 -223493 -111465 
194 1 23.6762 23.8119 10.0962 0.710264 -83746.2 -744058 -191115 -589401 -94439 243993 
195 1 23.651 22.1258 12.1322 13.1604 -876507 -235289 -642062 -34776.7 -731440 -392026 
196 1 21.8347 23.7531 11.85 16.0289 358159 698209 1.32087e+06 168894 178244 150849 
258 1 23.7503 23.9045 13.7897 0.915194 -1.22295e+06 -933405 34400.1 -264007 37859.4 -652694 
198 1 27.19 23.6326 10.1034 0.283413 140694 -500004 98748.9 677462 -128218 403192 
197 1 25.3339 21.8642 10.2457 14.4271 1.21448e+06 683166 780926 -14392.6 -521783 -11096.6 
199 1 27.1755 22.0674 11.9938 15.6175 798857 61227.6 542137 161900 323081 144831 
200 1 25.4208 23.8405 11.9918 0.35869 -407939 -472650 -53042.9 -48125 376395 99563.7 
261 1 25.3469 22.0096 13.7766 16.0566 322236 207139 423133 146534 -560805 58003.7 
202 1 30.7501 23.6448 10.2109 0.322744 -183338 -835887 -358378 -410762 615193 99624.9 
201 1 28.964 21.9374 10.2766 15.2082 85402.1 -11825.1 696531 88816.6 -2679.34 -226218 
203 1 30.7557 21.8806 11.9305 15.1643 765776 77385.8 818446 -59663.3 -71591.7 220789 
204 1 29.0869 23.7738 11.976 0.510816 -506381 -591682 131485 -73462.9 430350 -606040 
3009 1 36.1366 21.6776 13.6907 15.6518 1.10637e+06 973509 1.51909e+06 208313 -170836 216823 
2937 1 36.1273 21.692 10.2438 16.9554 1.09796e+06 621058 1.61712e+06 11390.9 -148929 -188960 
205 1 32.5993 21.7352 10.1804 16.533 1.33586e+06 717574 1.13594e+06 -114117 -119996 74944.9 
207 1 34.2692 21.6032 12.0675 11.9122 1.11034e+06 807676 1.28108e+06 336676 -361024 -176207 
208 1 32.6698 23.5113 12.0972 0.713121 490031 312918 892711 -105051 -152995 -333724 
2940 1 36.0621 23.6399 11.9727 0.558374 -2814.54 -348428 -225576 491723 82751.8 223954 
210 1 23.738 27.2367 10.1135 0.314318 -138873 223343 -276234 104301 318081 320242 
211 1 23.6179 25.5497 11.8243 0.598988 -455559 -1.04928e+06 177785 665086 197435 149238 
212 1 21.9663 27.2007 11.8841 16.4698 -252702 606043 1.06105e+06 595497 268091 -20869 
214 1 27.3311 27.1913 10.123 0.236145 -429023 -319717 269697 17639.4 265413 280564 
215 1 27.325 25.4714 12.0204 0.175253 -511265 -226696 294618 -122935 35518 122438 
216 1 25.4877 27.2255 11.9263 0.192706 109711 193454 202086 238034 -86351.3 -59991.7 
219 1 30.8519 25.4274 11.8786 0.367639 -255380 -378250 -130247 -307196 -157545 -309221 
220 1 29.0853 27.1388 11.9314 0.294454 -692371 45889.2 6705.88 -55451 -128696 -87917.5 
282 1 30.762 27.2401 13.7701 0.294314 -243117 -268032 393366 266530 -133331 -65187.8 
2955 1 36.1288 25.3325 10.2094 0.638458 44414.8 -101066 -46040.5 -131467 353864 -759.179 
223 1 34.3873 25.3891 11.8917 0.246442 -157981 104581 417723 326238 414814 5488.81 
224 1 32.6071 27.2553 11.9397 0.19224 224061 -118902 600984 -39711.8 210493 464844 
285 1 32.5217 25.4338 13.7642 0.438894 408475 -169274 148507 -340057 -201176 -129435 
226 1 23.647 30.8033 10.1073 0.119807 -93108.4 129950 -278250 -421635 263199 -338393 
227 1 23.7443 29.0021 11.8989 0.157511 -338880 46881 424168 148299 -45790.9 -149023 
228 1 21.9168 30.6884 11.826 16.9608 280129 1.41597e+06 1.33428e+06 168999 490315 -162639 
229 1 25.5863 29.0281 10.0912 0.324207 179756 329654 522058 -295250 321436 -25521.2 
230 1 27.2047 30.8695 10.0965 0.248125 104387 -258513 494502 -86067.3 75939.7 148891 
231 1 27.3969 29.0547 11.9522 0.356307 -136972 -113248 -281758 -129903 92543.5 -122847 
232 1 25.5201 30.7722 12.0198 0.180594 270998 -372555 59367.4 -86471.4 168350 54439.7 
293 1 25.4928 29.0205 13.7484 0.280266 171220 69230.1 161085 195185 -161493 308471 
233 1 29.0494 29.0963 10.1367 0.32418 -433339 343112 48854.2 -352620 296251 5310.45 
235 1 30.8714 29.0089 11.8987 0.293663 -273379 523609 233048 70006.2 401587 277725 
236 1 29.0009 30.8889 12.076 0.602669 -809427 -596473 93390 -706391 556194 165949 
297 1 29.1549 29.0495 13.7958 0.315936 -757072 -700718 364264 388669 -144842 212585 
238 1 34.3394 30.7548 10.1057 0.189362 66685.2 206669 -25921.2 -356392 -73982.7 402003 
2976 1 36.0255 30.9137 11.9521 0.623381 -331027 494023 85740.9 -194548 320472 -249720 
237 1 32.5855 28.9774 10.1687 0.287885 -116936 -53647.2 -129025 109525 301429 245996 
239 1 34.3857 28.9868 12.0225 0.19122 205181 324939 721363 -165662 -118406 11665.2 
240 1 32.6246 30.8127 11.944 0.255552 -233568 -923116 31219.6 -436960 74548.3 -211134 
242 1 23.5337 34.3444 10.2025 0.530109 -197143 200199 167794 -143630 75338.5 -23387.9 
244 1 21.8078 34.4255 11.9346 18.6332 311082 1.21615e+06 1.03586e+06 -409254 410764 38743.5 
243 1 23.7047 32.5508 11.9212 0.33154 191454 435549 330085 -176910 312820 122859 
309 1 25.4329 32.5038 13.7941 0.399108 478443 323877 167064 -349350 90290.4 -17984.7 
310 1 27.0452 34.4816 13.7172 1.02501 -8750.45 -330675 186397 -51912.9 -445868 -206436 
246 1 27.1848 34.5095 10.2156 0.565151 322868 444356 416790 426410 47771.6 -187007 
245 1 25.4162 32.5863 10.1514 0.144829 85823.1 -43416.3 249868 142130 280913 -33270.4 
247 1 27.2551 32.6065 11.9955 0.234527 333817 211203 486094 183785 27346 -112810 
248 1 25.3613 34.4337 11.9673 0.139762 -438779 180719 -424842 -483382 -172889 -57986 
250 1 30.8167 34.4399 10.1309 0.230723 -463536 -23828.9 -194243 144394 261723 -265100 
251 1 30.7509 32.4997 12.0084 0.651944 -303178 215446 144519 -339023 127453 144960 
252 1 29.079 34.4909 11.8372 0.807118 202075 397155 274622 -263966 118213 -370430 
1577 1 28.9526 36.0644 13.7987 0.596982 107354 180812 26203.1 -265575 77264.8 156565 
4485 1 36.078 36.0838 13.7173 0.307883 -440777 -26738.2 44667.3 -229743 147192 -92706.6 
318 1 34.3482 34.4092 13.7233 0.236026 -555952 -811073 -411389 -94330.6 84288.2 -371312 
317 1 32.5655 32.4989 13.7807 0.375138 -1.54552e+06 -569248 -844020 -23431.3 515572 -154460 
253 1 32.4276 32.564 10.1352 0.424895 -7524.07 -485794 201842 -365608 181598 -17869 
2994 1 36.0709 34.3688 11.875 0.171195 81895 -229530 -122594 254455 232127 -59837 
255 1 34.1969 32.5925 12.0619 0.660592 -980825 -884197 -35887.5 -3030.69 294736 -242565 
256 1 32.5784 34.3944 11.979 0.108777 -467499 155356 -11644.4 528000 75220.9 -132323 
257 1 21.9665 22.345 13.912 23.6201 28664.6 359050 480102 -309072 114941 -103427 
259 1 23.6198 21.7779 15.6573 18.7764 875339 1.25429e+06 1.28431e+06 -30335.5 45457.6 -78235.2 
260 1 21.9041 23.846 15.8572 13.4475 682296 1.12875e+06 829561 -216627 -338700 -446492 
322 1 23.7841 23.7865 17.4463 0.575696 -991727 250126 -513728 -485471 311238 70078.1 
262 1 27.2457 23.7125 13.9266 0.258076 274405 -708178 -180135 6351.22 -110288 -176579 
263 1 27.1606 21.8718 15.5794 16.7327 1.36195e+06 510002 1.20623e+06 -196998 186385 280292 
264 1 25.3361 23.7617 15.6786 0.8629 -456085 -227205 -385430 226099 624656 -85310.3 
325 1 25.4618 21.8095 17.4666 17.643 1.47642e+06 647556 1.12175e+06 -22928 251468 -113083 
265 1 29.0623 21.8098 13.843 17.0687 1.31288e+06 729724 1.49711e+06 -235119 139118 -196803 
266 1 30.8612 23.5801 13.8692 0.295991 -231740 -103766 523090 -30049.6 -171323 10412.6 
267 1 30.8119 21.8233 15.741 16.9119 271583 -293025 -86122.1 191884 496728 -401793 
268 1 29.0379 23.5502 15.7393 0.176125 -404161 -249788 -35346.8 310303 -220865 59639.3 
329 1 29.0812 21.7385 17.5144 18.9755 453514 314625 638860 -118439 242204 200816 
330 1 30.8259 23.5246 17.4237 0.775289 -486846 -1.07685e+06 -318294 185604 -125868 -27743.6 
270 1 34.4076 23.522 13.8418 0.352533 113676 638037 244577 -161188 -68989.4 -48265.7 
269 1 32.5471 21.7313 14.0433 15.9238 1.06909e+06 300311 1.08337e+06 90078.4 310785 -243090 
271 1 34.4332 21.8342 15.8205 15.6353 1.11099e+06 224641 716408 -41054.9 -271167 -448881 
272 1 32.6021 23.6872 15.6104 0.609987 -122310 -371238 -298444 -106831 -40252.3 -365041 
334 1 34.48 23.5877 17.4548 0.420141 -276080 -935079 261196 206872 180460 -376951 
273 1 21.8892 25.48 13.8743 17.1254 115244 1.01593e+06 972066 101870 -26683.4 -221655 
274 1 23.7381 27.1402 13.8539 0.402219 -139711 -165457 93102.6 147042 -17332.6 273345 
275 1 23.7829 25.6005 15.6802 0.567947 -551104 -925348 -458666 471000 -166082 442386 
276 1 21.8238 27.1086 15.6889 10.2193 358227 857286 742047 347032 -111780 -186007 
278 1 27.3322 27.3042 13.8067 0.267206 -167581 -96341.2 -55947.9 -91996.3 114273 -339761 
277 1 25.605 25.5057 13.8647 0.505357 -753668 -915793 -252534 87825.2 316704 -241007 
279 1 27.2628 25.336 15.7884 0.596707 -356273 -275942 -238560 90686.8 -98918.6 -346022 
280 1 25.6415 27.239 15.6449 0.553541 -413206 -990711 -77392.8 -148665 11162 -377461 
281 1 29.1115 25.373 13.881 0.282301 323403 -102378 250327 -270791 -220671 -335355 
283 1 30.8233 25.4525 15.7847 0.586297 -203846 -66351.4 40942.4 121270 -67285.3 -159579 
284 1 29.0009 27.1909 15.6682 0.27853 -149167 131687 -81298 20858.7 22001.9 -151177 
346 1 30.8584 27.214 17.4918 0.279598 -130975 -1.00606e+06 -236515 -404086 6542.54 -55093.3 
286 1 34.412 27.084 13.8988 0.452241 -225868 -414731 -216341 -113522 233764 154741 
288 1 32.631 27.1492 15.5877 0.332019 -604885 -447325 91247.5 -86835.6 418185 -62669.5 
287 1 34.3794 25.4313 15.6559 0.165683 -776919 -846349 -125052 -74800.2 435083 508134 
349 1 32.6752 25.3072 17.49 0.301932 -89006.7 538059 -276184 120081 276365 -339194 
290 1 23.6663 30.7493 13.8748 0.396222 -370344 181492 765002 -342977 545616 -137869 
289 1 22.0129 28.9346 13.8324 15.0498 305339 947028 1.55752e+06 -66399.5 -48799.8 -116435 
291 1 23.7973 28.8719 15.7049 0.854636 210852 246282 -189020 283830 -191812 -245797 
292 1 21.9519 30.8246 15.5893 16.8503 105203 640194 379182 -365930 365082 376390 
353 1 21.7817 29.1007 17.3106 14.3547 515277 514685 170478 -97857.1 161541 26616.6 
354 1 23.7747 30.6693 17.3853 0.749556 33369.2 76449.2 373804 -14754.8 189548 -39976.2 
296 1 25.5688 30.8415 15.6892 0.469088 -193783 -49044.7 52668.7 87579 107093 235182 
295 1 27.2707 29.0491 15.6098 0.325851 -188263 -852952 -231155 -153304 286463 -218371 
294 1 27.4073 30.7324 13.812 0.674299 -389029 -97624.3 -641696 181614 635588 178874 