ITEM: TIMESTEP
11000000
ITEM: NUMBER OF ATOMS
5780
ITEM: BOX BOUNDS pp pp pp
2.5465432765415503e+00 6.9753456723473988e+01
2.5465432765415503e+00 6.9753456723473988e+01
-3.4751556403707529e+00 7.5775155640386302e+01
ITEM: ATOMS id type x y z c_csym c_2[1] c_2[2] c_2[3] c_2[4] c_2[5] c_2[6] 
65 1 21.8503 22.1175 0.0323909 31.4906 255446 463891 377727 -325933 -10842.3 212159 
4 1 21.5699 23.7994 -1.80723 16.0999 149018 317204 840773 -33168 313449 356628 
3 1 23.3027 22.0462 -1.88884 16.187 296493 94036 1.32727e+06 -369131 550345 6066.73 
66 1 23.4436 23.8906 0.0708859 0.486327 -665851 -874650 -476778 -239947 371110 413802 
69 1 25.0572 21.9587 0.17168 16.0533 970090 41317.6 848321 -252281 -154966 -55826.5 
8 1 24.9798 23.7133 -1.78402 0.677601 -325119 -282211 191245 -336210 60405.1 18545.2 
7 1 26.6781 21.8233 -1.83811 17.3452 1.03833e+06 297444 920411 -86740.9 -161007 -9834.16 
70 1 26.7865 23.6666 -0.10014 0.484415 -92744.1 -265509 212064 -327058 86383.9 124491 
12 1 28.5499 23.5393 -1.8901 0.186965 156929 134997 40423.2 75933.9 -348478 -207797 
73 1 28.4725 21.6812 -0.046126 17.7298 1.39261e+06 594033 1.64367e+06 -359976 -70713.6 147417 
11 1 30.4162 21.7872 -1.80529 15.4128 786959 2357.02 964994 -422063 -96761.1 -278088 
74 1 30.1653 23.4471 0.00990588 1.19257 541686 146246 237507 -115793 37970.5 -95821.5 
16 1 32.1228 23.4482 -1.83669 0.350283 109508 -682534 402677 -183395 -230171 -753149 
77 1 32.0994 21.5493 -0.0203194 20.1659 1.56338e+06 1.11346e+06 1.31569e+06 7754.59 -304696 31251.3 
15 1 33.8855 21.5554 -1.8355 18.0079 1.3535e+06 976876 1.36056e+06 123738 -439773 -278680 
2793 1 35.7754 21.7557 -0.259644 15.2841 686714 -425095 857892 175119 -391827 303080 
78 1 34.0549 23.4274 -0.0893017 0.311474 -140267 -100783 513509 479990 -262312 -245448 
2724 1 35.8045 23.4427 -1.97888 0.233148 670753 -331087 -401858 168910 -32665.9 29320 
20 1 21.5203 27.3418 -1.77784 17.6729 -10743.7 979846 1.04437e+06 -32076.2 -84641.5 93388.1 
81 1 21.6132 25.583 0.0655402 15.1192 -449590 -196961 -346013 -351566 420594 -3599.09 
19 1 23.2851 25.585 -1.73948 0.250109 -652845 -1.0945e+06 -537364 -264329 432883 -89191.9 
82 1 23.2757 27.2759 -0.00747656 0.663618 -683178 -727162 -203540 -295162 6087.41 -350071 
24 1 25.0276 27.2718 -1.85459 0.23655 242726 -195769 -311788 -386503 -65386.2 287235 
85 1 25.2984 25.6818 -0.0082564 1.34693 -280649 -463219 -221852 -312402 200942 152015 
23 1 26.8818 25.4609 -1.92153 0.253012 -594224 225208 -628450 -88527 152729 319932 
86 1 26.9669 27.3606 -0.00534996 0.401481 -728111 -619370 -96006.6 -471883 387529 -182328 
89 1 28.6042 25.4086 -0.0649549 0.198223 257592 -302180 413207 -190623 -182110 170238 
28 1 28.6841 27.1837 -1.78943 0.430741 66940.9 -14134.4 280030 -148375 29708.4 257459 
27 1 30.4878 25.2619 -1.95981 0.541109 -9754.6 -92933.8 448158 -177593 -194824 -226561 
90 1 30.4727 27.0278 0.00328683 0.427284 -16847.6 437615 22490.2 -373632 -43720 154407 
93 1 32.1817 25.1399 -0.086308 0.548264 947710 655285 641549 349497 -228689 -187898 
32 1 32.1201 27.0206 -1.96607 0.468344 -15516.2 10689.5 616497 -421709 -81729.1 -157471 
2811 1 35.7935 25.202 -0.181705 0.226638 -3924.02 427177 287016 -306200 242697 -30664.2 
31 1 33.9628 25.2589 -2.09234 0.567665 348663 191996 -82466.3 79093.5 -343483 79946.9 
94 1 34.006 27.0966 -0.0841003 0.175671 921644 864490 1.04688e+06 18048.8 57422.2 249093 
2742 1 35.8285 27.0586 -1.96979 0.147445 -432673 -299006 -28494.6 -77662.3 -331570 -12239.5 
36 1 21.4796 30.852 -1.7005 18.8825 402590 917575 1.32878e+06 458618 14671.4 -40269.6 
97 1 21.651 29.1353 0.164923 15.0524 -392403 1.06838e+06 785470 -73295.7 -161921 6580.08 
35 1 23.1872 29.1713 -1.81072 0.820872 -715600 -289286 178624 -206770 196118 161458 
98 1 23.4437 30.7664 0.143318 0.433084 -1.11318e+06 -941659 -346636 -103362 -446750 -489498 
101 1 25.1202 29.0476 0.000315017 0.148228 85555.5 -587043 -57741.7 584959 -112845 321135 
40 1 25.1274 30.6634 -1.80385 0.717899 -156790 17975.3 55097.6 -203981 232655 235113 
39 1 26.9674 28.9905 -1.93191 0.391607 111372 206633 423264 390764 118380 291572 
102 1 26.9595 30.8818 0.0219226 0.202491 29711.9 -97603.2 191133 71042.6 9413.48 752691 
44 1 28.7442 30.8619 -1.86822 0.204906 440112 17153.8 191915 98566.3 162687 298752 
105 1 28.7441 29.134 -0.0135108 0.444002 268560 345430 65670.6 -104485 324879 -171893 
43 1 30.4718 28.9699 -1.89174 0.177741 148837 123291 584312 -310572 -129701 301615 
106 1 30.6231 30.9595 -0.0764551 0.930429 -585608 -181486 -321674 -246258 255446 -96056.3 
48 1 32.2 30.7207 -1.93645 0.3369 -741765 266223 -546329 -72372.8 -290873 -153913 
109 1 32.2046 28.9109 0.00293832 0.440369 97445.9 97881.9 -135820 -111467 66588.8 -141830 
2829 1 35.8484 28.8277 -0.149867 0.194754 -85869.1 -289311 -198493 -78098.4 185007 402375 
47 1 33.9476 28.7877 -1.96444 0.372724 388524 421131 375203 -89122 -239448 -86705.8 
110 1 34.0164 30.6999 -0.21881 0.48744 -171962 207114 83736.7 -99793.6 352261 298509 
2760 1 35.7816 30.5557 -1.98896 0.342796 161432 6497.5 202570 530936 204298 -354363 
2847 1 35.9032 32.3243 -0.166313 0.455768 -192419 -354574 177217 76819.2 -227951 150854 
1283 1 23.3559 36.1467 -1.77184 0.197037 -213124 479832 777833 -299034 -81367.2 -255294 
113 1 21.6445 32.5385 0.195875 16.6335 83254.5 850467 762892 -221209 -293031 -131979 
51 1 23.3894 32.6367 -1.77226 0.208593 -180815 667787 505684 176229 -162900 -147592 
52 1 21.6306 34.3208 -1.83131 15.7411 2150.6 858834 933583 125780 331434 -132372 
114 1 23.3415 34.3057 0.157294 0.172506 -626335 -431176 449922 435203 -260464 -332490 
1353 1 21.6082 35.9712 0.288296 16.445 137504 1.17331e+06 1.64776e+06 195026 -151727 -266570 
55 1 26.8563 32.5352 -1.77178 0.281065 -45300 -52668.2 205363 311284 -78334.4 365313 
117 1 25.0936 32.6121 0.0688673 0.354788 -359539 -571391 -334021 33144.9 245072 176988 
56 1 25.1987 34.369 -1.75212 0.186568 212260 -419417 364118 -78288.6 164361 -55850.6 
118 1 26.923 34.3502 0.186438 0.445537 -225526 -245210 -362373 101891 -166869 -360706 
1357 1 25.1533 36.1328 0.103468 0.296461 243687 345642 370436 17884.4 -128626 -222578 
1287 1 27.0178 36.0606 -1.7672 0.274059 135046 24228.1 400782 98295.2 19578.2 -264765 
121 1 28.7382 32.5994 -0.0181218 0.149884 -166763 -954942 -290377 -197823 -125003 155991 
60 1 28.7132 34.2902 -1.74097 0.354572 -199647 -93389.4 278659 398409 -457829 276029 
59 1 30.561 32.6284 -1.92076 0.302511 -106779 -350689 -49962.7 151065 188625 446412 
122 1 30.4493 34.3859 -0.00867205 0.790724 -536232 -566699 -448974 -59015.1 -282596 -48856.4 
1291 1 30.5874 36.0564 -1.84662 0.17009 -393501 -517514 -510912 312195 213600 -53769 
125 1 32.3828 32.5732 -0.108495 0.219792 8821.66 -51671.6 487718 -439164 80269.4 167582 
1361 1 28.81 36.1225 0.0470149 0.387516 -779973 -508101 -64274.1 677651 137251 -17064.1 
63 1 34.1379 32.4771 -2.07973 0.349902 86881.2 -307046 19698.5 -7161.97 74220.9 -124814 
64 1 32.4419 34.3479 -1.92095 0.414755 17932.6 -756497 -845094 156961 152650 -270189 
1365 1 32.4546 35.8848 -0.12763 0.92675 -69379.1 -643108 -546805 331628 -190332 -205906 
126 1 34.34 34.2664 -0.128033 0.654489 -427041 -449695 373253 -162916 -283479 -134073 
2778 1 35.9657 34.1405 -2.13184 0.698845 -416681 -624461 -366710 69583.6 -8036.73 -240204 
4242 1 35.9531 36.0055 -0.214823 0.423201 -614576 -352752 -40860.3 -310957 -26433.9 268732 
1295 1 34.2851 36.1304 -1.98269 0.625386 -505970 -20344.9 -685770 -226449 -133076 19820.2 
68 1 21.6328 24.0273 1.91991 17.7754 214738 273251 837679 325559 145427 581552 
67 1 23.2579 22.2966 1.99179 14.31 114426 -136460 841941 71155.1 -347168 235880 
130 1 23.7458 24.0463 3.79468 5.4838 -1.95914e+06 -1.04346e+06 -590445 -873288 441479 102337 
129 1 21.7284 22.9062 4.19768 32.1375 125749 788411 1.15302e+06 -309336 -117690 213161 
133 1 25.0557 21.9668 3.8754 18.9492 853896 286518 1.15962e+06 -31491.6 182304 2185.27 
72 1 25.1958 23.827 1.89314 0.226567 -1.22971e+06 -909347 -265824 61656.2 277625 -267528 
71 1 26.7431 21.9807 1.92745 16.6694 323884 -79686.2 772671 55461.5 -438337 -27989.4 
134 1 26.8046 23.7362 3.85022 0.266865 -257409 -711534 519023 714218 -129357 88691.3 
137 1 28.4659 22.0099 3.81795 15.7388 804593 -384909 812179 179293 -191178 -231850 
76 1 28.5465 23.6272 1.8834 0.153845 -70028.4 -144642 702211 176458 294318 375437 
75 1 30.2797 21.8469 1.94451 16.943 1.32748e+06 172197 1.51234e+06 -75189.9 72039 187684 
138 1 30.3343 23.6406 3.76813 0.290457 13786.8 -179307 441915 -158118 15149.1 -15492.5 
80 1 32.1757 23.4152 1.79452 0.381526 697041 64170 895312 -9917.32 -14034.4 424589 
141 1 32.2928 21.816 3.71013 14.6872 1.52098e+06 372900 876996 -185255 64828.8 -11532 
2796 1 35.7145 23.3144 1.75829 0.912186 -527343 -720789 50676 15734.8 -475367 371453 
79 1 33.9446 21.7136 1.84845 17.763 190660 23462.9 984140 -204835 -239209 121694 
142 1 33.9878 23.6585 3.65234 0.855996 80492.7 -578395 292110 337931 -143545 -97390.7 
2865 1 35.5804 21.7878 3.6526 14.8249 814031 -233041 589155 -70685.5 -405964 387536 
145 1 21.8372 25.5991 3.93456 13.5696 213082 179992 -476931 72278.8 -2383.27 213084 
84 1 21.5892 26.9867 2.00609 13.6164 -70003.4 766970 157861 591642 -25108.1 -159561 
83 1 23.5516 25.6497 1.88098 0.516253 -1.05892e+06 -849280 -167186 271051 149111 42758.5 
146 1 23.522 27.359 3.74685 4.69497 -505370 -582579 -307390 50330.5 141388 -166984 
88 1 25.2575 27.3502 1.88619 0.229865 -504014 -670947 -213435 -452508 318329 -129343 
149 1 25.3553 25.6714 3.85714 1.70681 -1.08807e+06 -1.04082e+06 293224 -652901 225950 241720 
87 1 26.9346 25.476 1.94729 0.286664 -566052 -322202 272232 -190105 135280 -103508 
150 1 27.1214 27.3155 3.69171 4.5689 -352171 -43341.4 494710 54917.5 -79133 42948.5 
153 1 28.7219 25.4585 3.87573 0.299004 12846.2 -97302.1 435005 562827 -215866 132931 
92 1 28.7524 27.1924 1.81669 0.231973 -174634 325252 234653 118531 491767 -126301 
91 1 30.4252 25.391 1.88532 0.194349 203178 334875 311862 16842.7 -123645 479289 
154 1 30.5604 27.2489 3.78182 0.320841 -268735 -221357 476376 -143024 -132389 -83196.9 
96 1 32.2172 27.1263 1.80941 0.186526 117411 476090 302056 56706.7 -314891 383927 
157 1 32.1903 25.3233 3.64256 0.246018 68756.3 399938 765183 237595 -627954 94342.3 
2883 1 35.8207 25.4027 3.71394 0.838539 -528954 282068 -64227 -154323 -455980 -17215.7 
95 1 34.1116 25.2003 1.75047 0.557066 1.13099e+06 602330 452968 207568 59892.9 208816 
158 1 34.0272 27.1471 3.53548 0.458182 286170 778518 729566 170256 -232632 58261.7 
2814 1 35.8801 27.189 1.73997 0.39944 74849.7 210751 256265 -166497 -5663.73 246983 
99 1 23.3171 28.9622 1.91912 0.586492 -148829 316259 -551245 182925 -84156.8 438674 
161 1 21.6742 28.9478 3.77067 14.3383 -29268 1.20438e+06 1.12172e+06 120810 371025 -122610 
100 1 21.5688 30.889 2.10141 15.1239 272084 788530 721590 -460265 -128213 159453 
162 1 23.4736 30.6682 3.84629 0.20234 -1.09205e+06 -510917 241835 -129609 189835 -137397 
177 1 21.7427 32.3448 4.13485 16.3918 227166 262127 681873 137158 -91725.2 -415914 
165 1 25.3377 29.0615 3.74467 4.3623 -105101 -196830 317533 -154295 267900 -571067 
104 1 25.1192 30.8114 1.84298 0.562451 -545639 -187562 -322127 569604 -374665 -62449 
103 1 27.001 29.0782 1.75591 0.324172 34411.6 -175895 -156900 -280709 353154 -90854.4 
166 1 27.0763 30.7569 3.76653 3.8734 -251427 -389604 516144 208290 247193 -204733 
181 1 25.2363 32.2765 3.94148 0.513404 -798506 -518964 480995 265007 362431 -125315 
108 1 28.8864 30.8238 1.80223 0.260225 260673 -156547 5460.01 -68482.2 -112134 1721.81 
169 1 28.9103 29.0898 3.70954 4.18783 -254723 223284 385923 111844 -14347.8 161278 
107 1 30.5711 28.9573 1.83189 0.198436 -442267 148779 -77527.1 273963 380245 -68211 
170 1 30.6653 30.7855 3.67743 4.01675 -406221 -317670 576867 230550 -411165 156355 
173 1 32.2373 28.9546 3.74024 0.317811 -655426 -773922 -117882 -236499 -488940 93781.2 
112 1 32.4084 30.6962 1.70228 0.520901 -581819 -471494 -76305.3 565259 -153222 -265370 
2901 1 35.8522 28.9515 3.65581 0.253369 -272348 -21062.3 263619 -202767 -172979 -164862 
111 1 34.0698 29.0396 1.70029 0.576273 -32560.5 -157023 553678 607238 -234325 18507.8 
2832 1 35.8824 30.7588 1.74276 0.263385 -143489 -254649 458804 180762 -33195.8 420196 
174 1 33.9996 30.6931 3.66674 0.395606 -181804 -316775 76253.3 598240 -406663 50606.5 
115 1 23.3977 32.4337 1.93579 0.526043 -1.51706e+06 -899093 142224 239087 63878.3 -229951 
116 1 21.6189 34.1103 2.20198 15.9225 724095 1.58213e+06 1.51451e+06 326646 47004.6 -219912 
178 1 23.5635 34.0451 4.05496 0.552209 -255693 565856 724399 -70625.4 445681 -165162 
1425 1 21.8182 36.0106 3.99922 16.371 166117 581564 624735 -491313 -50004.8 -198431 
1355 1 23.4373 35.987 2.0382 0.197314 -102796 700481 669394 559845 15460.3 -423133 
119 1 26.9815 32.5829 2.03935 0.499344 -13987.1 -256633 240247 -295803 -42455.8 51083.2 
120 1 25.1162 34.2246 1.94975 0.45491 -31380.7 147716 487571 423369 126691 -452790 
182 1 27.0168 34.1308 3.94537 0.434815 91824.6 -46766.4 543124 -3526.63 -55541.5 -338638 
1359 1 27.0443 36.0446 1.85541 0.699272 -1785.43 -430725 201662 166211 -153130 -452469 
1429 1 25.2279 35.9229 3.94474 0.277077 872995 910448 912881 -82184 4864.21 -225997 
1433 1 28.6973 35.9054 3.86618 0.83632 542256 102105 624519 -278824 72309.1 11817.8 
185 1 28.9056 32.497 3.78664 3.54485 -263780 -63278.8 256430 99487.1 215280 -289627 
123 1 30.673 32.5692 1.80509 0.193655 122985 -209356 -158301 -135467 27461.7 -390369 
124 1 28.757 34.1968 1.88145 0.385137 -708997 -385267 175554 -456573 -75050.9 -143544 
186 1 30.7256 34.1369 3.75603 3.72793 402182 -96738.9 -182935 199783 -32743.2 -140606 
1363 1 30.5711 35.8607 1.95075 0.767943 -131755 -436872 192541 235602 -294665 -426271 
128 1 32.4367 34.373 1.78506 0.612197 -629466 -656318 6949.88 -45154.7 -20102.6 51992.2 
4323 1 36.1251 36.1336 3.65016 3.92761 -306037 157760 -37256.8 159662 -80791.3 280262 
1437 1 32.5541 36.0355 3.63605 4.63409 -747355 -869059 -267574 866778 211766 -315831 
189 1 32.4797 32.5087 3.66205 3.978 -1.05092e+06 -341420 -192136 888549 -319781 81522 
2919 1 35.9705 32.6072 3.63703 0.557829 -94978.4 -33332.9 -186826 -80801.1 -662056 163447 
127 1 34.1786 32.5335 1.85525 0.404283 -160922 291559 578980 41182.7 153379 156495 
2850 1 35.9887 34.2241 1.72537 0.0760243 -645958 -238961 155105 388437 -306833 378343 
190 1 34.2191 34.4032 3.6905 3.89828 -335163 -218350 56086.6 885932 -386575 459381 
1367 1 34.2709 35.966 1.75674 0.227902 -394298 -250329 -97902.6 43647.9 316747 210488 
131 1 23.4252 22.0496 5.70687 25.8374 477429 765883 684637 42681.7 60737.4 -46174 
193 1 22.7895 22.9391 8.00368 19.3014 -1.0199e+06 87215.3 1.17441e+06 -146511 155933 -55113.4 
132 1 22.6012 24.5177 6.02871 10.3057 543670 873361 691158 -75042.7 113025 149864 
194 1 24.4254 24.634 8.03092 4.71838 -728247 -885504 422512 -584541 395607 -525068 
197 1 24.996 22.2798 7.68648 12.9633 -1.0979e+06 -461878 174536 221753 348247 163940 
136 1 25.1128 23.9232 5.77894 4.95993 -111706 -122010 -600319 134960 -387208 310826 
135 1 26.6531 22.027 5.86587 13.8035 993640 31048.2 847044 223472 -25406.6 -229314 
198 1 26.9237 23.8115 7.57513 5.19038 -411001 -936538 -57996.1 -465673 -395339 59888.3 
201 1 28.5558 21.9725 7.5654 16.9895 272032 -144599 824837 -153766 -87972.5 33800 
140 1 28.6637 23.6177 5.62813 0.757389 -97704.2 -902609 -219691 4228.65 118778 -58681 
139 1 30.3071 21.8546 5.72212 17.4124 811961 -5376.82 1.5788e+06 1111.38 -7374.24 -49126.8 
202 1 30.3338 23.5937 7.63391 0.556569 226890 -87823.5 235238 -602290 -124440 78452.1 
144 1 32.0746 23.5103 5.61093 0.388495 736421 402214 1.26115e+06 -169501 -284212 -204654 
205 1 32.149 21.603 7.5369 12.5744 1.55776e+06 928678 1.52106e+06 -288277 -228793 -20304.7 
2868 1 35.6292 23.5108 5.6189 0.270246 -209194 -296207 668326 -120143 -278239 -188086 
143 1 33.922 21.7068 5.64614 17.7318 1.00118e+06 493500 1.02363e+06 -144887 -303874 -271814 
206 1 33.885 23.4388 7.48226 0.174595 133401 -143611 309856 -144484 240472 -449866 
2937 1 35.5893 21.6135 7.50993 16.9989 906092 306747 931354 117943 -581060 -219133 
147 1 24.2823 26.4253 6.06258 5.47588 134302 271950 1.1482e+06 -620877 336379 61082.4 
148 1 21.8652 27.0629 5.82654 16.0712 117099 837727 48454.1 -119725 -200358 -298023 
209 1 22.5557 26.2242 7.9594 9.14358 35009.5 828658 421679 105484 -52216.6 361415 
210 1 24.238 28.0373 8.09515 5.53961 9885.51 -261383 518485 -95456.5 128731 408824 
151 1 26.9803 25.5867 5.82369 4.72529 -363356 149154 -412416 -447877 -832445 247326 
152 1 26.0755 27.9707 6.07408 5.76007 914667 465678 1.6565e+06 -592934 -26516 43602.7 
213 1 26.1986 26.2767 8.11184 5.32583 -341955 -227978 -153984 -664412 249125 -626814 
214 1 27.9596 27.9743 8.01013 5.15055 -28687.8 -282936 129258 -129607 460545 -312378 
217 1 28.6112 25.5412 7.48932 5.97963 -1.18349e+06 -186287 -937231 -492987 -737525 311446 
156 1 28.7552 27.2549 5.70311 5.15496 -5810.52 -473220 47688.4 -500725 -189702 191712 
155 1 30.3789 25.3896 5.7282 0.378591 -271987 303788 267574 195807 -532119 -114693 
218 1 30.4361 27.2787 7.57723 5.84192 178244 -493844 60397 -350484 -169752 422559 
160 1 32.3122 27.1839 5.53195 0.488522 136388 -105776 459117 -176151 -507923 342889 
221 1 32.1478 25.4466 7.44726 0.311741 60219.6 651392 401005 -118193 -554094 249585 
159 1 33.9541 25.3442 5.46897 0.339836 113830 156037 513610 387203 -247996 -248222 
2955 1 35.554 25.2797 7.47347 0.5475 -423605 5597.78 -335636 31166.2 165486 -358602 
2886 1 35.6845 27.1533 5.52407 0.163057 89296.3 -116827 134452 18483.1 -509850 -453804 
222 1 33.9484 27.1668 7.50928 0.355086 -274069 -486198 65113.6 -424001 -153225 244023 
225 1 21.8947 28.7502 7.75919 16.0437 65376.9 711222 629148 -106098 -167115 -182229 
163 1 23.5982 28.856 5.66504 5.2687 -77378.4 -346043 362541 -129106 92775.7 -440788 
164 1 21.7839 30.4782 5.80404 16.2367 240412 947223 1.38738e+06 143153 209393 135043 
226 1 23.7643 30.4065 7.70817 6.1761 -364698 -896372 103387 -57945.8 325231 39274.9 
241 1 22.0725 32.2808 7.8236 15.5489 -298277 709950 589286 -104496 -113016 529401 
179 1 23.656 32.1205 5.91421 0.786845 -1.04864e+06 -437094 -129285 555167 338912 36510.4 
167 1 27.9984 29.7609 6.03721 6.00077 781799 736052 1.13576e+06 -440965 140391 -86826.5 
168 1 25.4009 30.5247 5.73285 5.12273 -243811 -741169 -609370 85424.5 226426 -448351 
229 1 26.1717 29.6875 7.99904 4.97207 41598.7 -81239.2 566302 164528 -235979 186599 
230 1 27.9487 31.461 8.01282 5.47033 -250411 557587 408412 123894 -122936 102086 
245 1 25.5829 32.113 7.59979 6.57 -289383 -375100 -217010 -443821 32587 -51986.2 
183 1 27.229 32.2786 5.71008 5.3418 1013.6 -389870 -377210 -530597 337202 -287089 
171 1 30.431 29.0321 5.62707 5.25836 -227208 214149 -118049 -402992 -512046 -16505.9 
172 1 29.6855 31.4842 6.06155 6.21182 415173 503517 963367 -556186 -107433 -43197.1 
234 1 31.5387 31.4748 7.8119 5.32679 129272 126966 290111 -162675 5557.11 -144113 
233 1 29.785 29.7533 8.03609 6.00833 -281729 65820.9 512931 -62160 293091 -70946.7 
237 1 32.1195 29.0252 7.4757 5.7257 82573.1 286533 609455 -169676 5042.31 33596.2 
176 1 32.2634 30.7703 5.5852 4.99021 -95715.1 -131737 -538250 -133746 -189525 -26595 
175 1 33.9216 28.9466 5.55774 0.214874 -529464 -316854 220810 -144834 -712592 169977 
2973 1 35.6335 28.8871 7.35121 0.422146 -267690 128654 8501.55 -169809 31080.4 -222794 
238 1 34.0309 30.8457 7.37541 5.1944 28857 206767 158047 -194194 -77684.7 5288.91 
2904 1 35.7341 30.7541 5.4489 0.177121 -167124 -182010 244170 217758 -156013 -232483 
1497 1 21.9408 35.93 7.84022 17.7724 358280 1.21182e+06 1.59343e+06 -452333 2605.73 78437.5 
180 1 22.0044 33.9693 5.92506 14.3176 37581.9 949974 214343 21823.3 45984.1 -305188 
1427 1 23.5504 35.9924 5.78652 0.456221 -296886 254070 697739 51857.1 179290 -191947 
242 1 23.7326 34.0835 7.71355 0.228546 -471610 626503 206623 -564513 116236 -17336.7 
184 1 25.3291 34.0319 5.88206 0.315816 304198 856940 216539 -154848 213223 68856.3 
246 1 27.2346 33.9752 7.56362 6.33298 331928 298203 -136773 -330530 153243 -353240 
1431 1 27.0117 35.9862 5.81626 0.624508 226130 362937 349726 44613.5 94141.4 -215458 
1501 1 25.4474 35.9486 7.81678 0.878178 269120 778335 309501 -253583 368929 -280715 
188 1 28.8508 34.0766 5.69482 5.34399 422945 217713 -632926 -435313 -156664 -273109 
1505 1 29.0273 35.8535 7.46646 5.31183 133214 334648 212980 24899.2 193199 -76384.9 
1435 1 30.8263 35.8509 5.55781 5.54075 826399 144482 130600 -312490 128895 -335732 
187 1 31.5032 33.3299 5.94636 5.8567 938089 1.0135e+06 423999 -86395.6 11410.1 181353 
249 1 29.7756 33.3157 7.83104 5.07333 254510 25934.8 151546 -456879 -232833 -46278.6 
250 1 31.4442 34.9881 7.96916 5.26614 115343 -322174 636733 -345224 147066 80706.6 
2991 1 35.7009 32.6094 7.26582 6.3526 -377297 -59868.9 98030.6 -407246 -308649 149731 
191 1 33.9934 32.5825 5.49888 6.07679 -199717 270097 -453014 -70687.8 -988915 129337 
192 1 33.3477 35.1033 6.01723 7.52758 1.16794e+06 674516 1.07103e+06 -219048 17634.6 -73037 
253 1 33.2831 33.3021 7.843 5.20706 423628 502011 624868 157803 223100 225039 
2922 1 35.8978 34.3432 5.4886 5.2195 355826 -45263 -83297.1 67714.8 -531211 265888 
254 1 35.189 35.0944 7.90872 5.25529 509939 590580 670459 -47166.7 36855.3 -166672 
195 1 24.3779 22.8482 10.1038 10.7149 232875 244998 1.33373e+06 137754 -85377.3 -9440.43 
257 1 22.6109 23.2028 11.9353 29.7062 782503 598566 877442 3674.93 92860.8 -36955.8 
258 1 24.5264 24.7591 11.9378 0.637096 -253441 -458616 236457 -173652 100285 -10260.1 
196 1 22.7487 24.5971 9.92832 15.3175 22109.6 -57652.9 806180 24448.7 158318 342051 
199 1 26.716 21.9677 9.42508 15.9336 1.02712e+06 724089 1.19676e+06 -26103.3 -233496 117121 
200 1 26.2437 24.4602 9.99148 6.0315 258557 477021 765763 -472992 320494 75147.4 
262 1 28.083 24.4642 11.8649 6.12088 -112976 5400.66 327074 -33447.2 60887.2 15064.9 
261 1 26.1949 22.7689 11.9366 10.7484 714927 536256 1.2056e+06 -56156.5 -86365.6 102931 
265 1 28.477 22.048 11.2842 14.5212 517450 -39350.5 725853 -218622 328599 61871 
204 1 28.594 23.7791 9.43235 5.77073 -497941 -112226 -294650 135258 -304004 109672 
203 1 30.2758 21.8652 9.41966 11.7208 1.51522e+06 33579.9 1.00161e+06 5713.06 -141479 -725.663 
266 1 30.3657 23.6551 11.1012 6.51681 129801 289939 547508 -417932 -145789 -218466 
208 1 32.1918 23.6083 9.29158 0.271597 -144431 514759 345340 -456654 -87524.9 -38563.5 
269 1 32.2391 21.7081 11.2727 17.5799 823287 762423 638855 -259081 40397.9 -105446 
2940 1 35.7228 23.4122 9.26837 0.322793 -7948.92 -8571.1 -278729 -290535 -46410.5 -56178.5 
207 1 33.8199 21.6285 9.40434 17.8289 913545 556492 632664 95630.9 -42233.9 66927.8 
3009 1 35.648 21.662 11.1569 17.5722 1.20977e+06 256308 1.28932e+06 -376240 -60812.3 61284.9 
270 1 33.921 23.5869 11.1003 0.389273 280339 250510 582360 30134.7 31638.1 108093 
211 1 24.4227 26.3643 9.92732 0.292723 -569834 -431225 349600 -454005 319773 133268 
212 1 22.7112 28.106 10.0593 9.64975 -285669 323064 475348 208641 157889 71239.6 
274 1 24.5604 28.0346 11.8765 0.224812 77208.1 -308741 80062.7 -163155 -72747.8 175069 
273 1 22.6765 26.3567 11.8961 16.251 3480.07 844219 481438 176201 -113247 320420 
215 1 27.9891 26.2184 9.87463 5.40977 -700000 -269155 -60150 189074 148109 -88261.8 
216 1 26.2438 27.9282 9.86077 0.404229 -922772 -1.03493e+06 -396662 -366983 91940.4 -144791 
277 1 26.4012 26.3408 11.8118 0.496905 -354439 -629438 499821 -652562 334991 203354 
278 1 28.0084 28.03 11.7008 0.599456 -430468 -690183 70754.8 -480002 8213.73 210373 
219 1 30.3464 25.569 9.2739 6.19668 234908 -224438 -2936.14 -186427 39347.5 156951 
220 1 29.8453 27.9342 9.92047 5.95365 113821 -425747 230031 154584 319650 -58137.1 
281 1 29.8562 26.2119 11.7449 5.62969 335677 503716 554801 -258945 -32614.5 99667.8 
285 1 32.2213 25.4025 11.2256 5.2721 375769 140508 545185 77141.5 203813 56161.9 
282 1 31.7581 27.8861 11.7777 6.11381 -250403 308626 -203215 -48044.7 -50606.2 -359652 
224 1 32.3178 27.2901 9.47848 5.11222 -133317 239781 -197307 -133211 -51448.8 47642.6 
3027 1 35.8034 25.3059 11.0971 0.255395 199359 68784.1 333523 353622 118881 292143 
2958 1 35.7109 27.0272 9.30661 0.443643 -250672 -303382 -86641.4 255527 -56200.4 -30717.3 
223 1 33.9068 25.3167 9.18641 0.596374 -585828 -412992 -458769 -589319 424913 186185 
286 1 34.0679 27.1131 11.1529 5.6006 -914316 380479 -40716.9 -185618 -185429 68027.1 
227 1 24.5385 29.7686 10.1054 6.4168 -156435 -410880 177022 -501752 -394955 177732 
228 1 21.9819 30.4558 9.50127 16.1613 513805 88177.3 458091 -229609 271800 -71654.5 
289 1 22.6544 29.7392 11.9554 10.313 392372 638653 674665 18576 -104987 -215248 
290 1 24.4902 31.5288 11.8904 6.07947 -165884 -472420 270764 113333 -24519.3 62881.8 
243 1 23.8109 32.1709 9.49231 5.76263 -811827 -184508 -306744 -519900 -169754 -243846 
305 1 22.1639 32.181 11.3376 14.0415 -216832 501129 460207 -149246 312395 -199788 
231 1 28.0215 29.5914 9.85453 0.65095 60417.1 -457370 -173220 112869 208279 181067 
232 1 26.2959 31.4367 9.95921 5.53685 62677.3 -137551 59490.6 -374445 16366.8 258197 
293 1 26.3077 29.8032 11.8299 0.245418 -512668 -25678.7 140443 159017 -370061 124112 
294 1 28.1889 31.5134 11.6788 0.527566 -101478 -203179 148513 -399524 159342 206590 
235 1 31.6028 29.7549 9.86273 5.69252 384811 645352 634764 -389202 149232 -103925 
236 1 29.7599 31.6155 9.7911 0.559501 151061 451206 359768 -55522.8 264878 -311219 
297 1 29.9587 29.7339 11.7728 0.369535 379709 401627 314446 77514.3 313213 154946 
298 1 31.6482 31.6431 11.7551 0.417695 -198286 -126452 401361 -263254 314500 45834.4 
3045 1 35.7151 28.9536 11.1141 6.07911 -349570 -50932.1 489599 -67101.5 -266166 -80395.3 
239 1 34.0674 28.9542 9.32763 4.97988 -190858 66825.8 233520 -563358 -182390 -106502 
2976 1 35.7571 30.7932 9.24634 5.75126 -415346 -92103.7 277312 -479459 315022 -35865.7 
240 1 33.3147 31.5295 9.70257 4.83943 108115 147709 451719 103998 147407 -244112 
302 1 35.1896 31.3804 11.6159 6.25011 -98447.9 104073 977224 -491079 102148 -127416 
301 1 33.4451 29.7636 11.7359 5.49697 -424208 556569 722654 -566229 207298 -13445.7 
1499 1 23.8011 35.9838 9.62171 0.585771 -509505 266081 197732 -318399 92549.3 -185669 
244 1 22.1384 34.155 9.69876 14.8016 296666 1.02356e+06 1.11758e+06 -160866 -44375.3 131702 
306 1 24.007 33.9146 11.3465 5.89557 -1.45196e+06 239396 -419741 -59650.4 402339 80419.6 
1569 1 22.0476 35.828 11.6474 15.711 412351 1.1419e+06 1.27067e+06 -464280 -308386 112792 
1573 1 25.6789 35.8206 11.2862 6.13735 -37177.4 -62127.1 294438 -408656 -257859 144787 
247 1 27.98 33.3263 9.90822 5.90789 -490210 -851662 57934.3 -307845 -38909.3 -2495.18 
248 1 25.5077 33.9107 9.5029 5.24294 -150121 494796 -679160 -342114 275029 168481 
1503 1 27.395 35.7551 9.33801 5.71631 -329147 97775.8 -63425.9 -60559.7 -116677 -12577.8 
309 1 26.2683 33.276 11.7422 5.23621 -1.07405e+06 360832 -231821 -91530.9 -202678 45512.9 
310 1 28.0837 34.9846 11.7434 5.14925 -322275 -380092 -157357 217434 274670 166436 
251 1 31.5872 33.2497 9.78409 0.251213 -86857.5 23732.8 274869 319643 -144572 469638 
252 1 29.726 34.9498 9.82084 5.07925 -649294 -40430.6 414785 -411811 455381 172823 
314 1 31.7337 35.1165 11.669 0.360466 -97427.3 -539927 -345552 459059 28225.7 359289 
313 1 29.8036 33.2908 11.7653 0.287421 -556860 -574035 64791.2 333989 167219 49166.1 
317 1 33.4023 33.2562 11.5262 0.69538 -301468 -49676.2 562056 -527511 207996 -64731.1 
318 1 35.2004 35.0057 11.6161 0.126518 -175443 -434914 -106450 -115354 -256009 -202460 
255 1 35.1556 33.3291 9.74076 5.15832 -61412.5 203403 436880 -25423.8 332946 -150535 
256 1 33.4628 35.1728 9.83275 0.774588 -283281 15759.2 140071 284961 171422 19704.5 
321 1 22.9247 23.0778 15.6231 27.5353 441155 788702 903822 -140153 603901 51267.8 
322 1 24.5708 24.8728 15.6031 1.25592 -697771 -834079 -175526 -369859 143191 -320354 
259 1 24.4444 23.123 13.8168 15.425 -71714.6 -92478.1 427208 -47695.1 623753 46340.2 
260 1 22.6598 24.7874 13.7763 17.3379 -264501 -440195 88515.4 -166278 41039.5 -155691 
326 1 28.2512 24.5377 15.6317 0.381297 77463.4 -276357 238644 -115762 -207083 431498 
325 1 26.2614 22.8772 15.6809 15.9858 1.38262e+06 882847 1.07535e+06 -130848 222125 84180 
263 1 28.0784 22.6758 13.685 10.6713 388009 55971.7 826695 -321191 -297562 208043 
264 1 26.3915 24.6173 13.7593 0.256983 242378 160256 599600 -534072 132761 -12466.8 
330 1 31.6061 24.3395 15.5324 5.55248 307306 777376 444281 69630.4 80610.8 56858.3 
267 1 30.4082 21.9417 13.0139 13.1976 989233 213668 1.47477e+06 -180853 385084 17216.8 
268 1 29.8523 24.3021 13.6303 5.28167 -323136 -158237 777826 -623039 -112857 48530.6 
272 1 32.2695 23.6122 13.0607 5.52552 82322.5 -411025 949878 65333.3 129310 -52193.2 
329 1 29.7724 22.5221 15.5413 11.3169 1.04863e+06 510760 1.26151e+06 52100.1 -195702 91118.2 
333 1 32.2185 21.8478 15.0902 15.3979 1.01029e+06 437284 1.1113e+06 -363188 58157 -70849.5 
3081 1 35.6069 21.691 14.9278 15.7132 1.48781e+06 497191 1.33411e+06 290058 79688 -106889 
3012 1 35.7665 23.464 13.0133 0.264833 469149 44983.8 784716 226427 234532 -110355 
271 1 33.8795 21.8049 13.0216 15.9801 517843 180812 924819 180931 -480180 -9104.57 
334 1 33.9775 23.5623 14.9737 5.77472 29509.6 -408775 66797.6 -156439 -21023.4 210799 
276 1 22.6487 28.022 13.7755 17.3383 290016 640300 861194 241148 44243 -7335.88 
275 1 24.4447 26.3863 13.7439 0.38553 -410448 -830875 -658517 -272494 -82087.5 84044.1 
338 1 24.645 28.012 15.6208 0.312269 -235299 -353365 38569.2 443752 254581 187109 
337 1 22.6687 26.3389 15.6775 18.024 77007.6 1.00067e+06 766144 412638 63906.9 -46067.6 
279 1 28.2246 26.2956 13.7932 0.505648 -581541 -70530.1 206124 -370059 -326256 59183.2 
280 1 26.4131 27.9853 13.8361 0.713601 171175 220617 255047 72671.1 137276 -104706 
342 1 28.2195 28.1388 15.6378 0.467154 -253130 -176780 47718.1 -160467 -103059 -303409 
341 1 26.4803 26.3272 15.6997 0.380678 -472856 -579459 -110495 -240683 108145 -35349.1 
283 1 31.6075 26.0115 13.611 5.70968 298033 87871.9 142251 -304299 171593 -117445 
284 1 29.899 28.0294 13.5571 0.446186 314950 -418328 363406 -418193 136493 204384 
346 1 31.7974 27.811 15.4223 0.765769 -484706 -182669 402647 -61539.4 210258 179276 