ITEM: TIMESTEP
1600000
ITEM: NUMBER OF ATOMS
5780
ITEM: BOX BOUNDS pp pp pp
9.3113054890378133e-01 7.1368869451111763e+01
9.3113054890378133e-01 7.1368869451111763e+01
7.6517635503847090e-02 7.2223482364511696e+01
ITEM: ATOMS id type x y z c_csym c_2[1] c_2[2] c_2[3] c_2[4] c_2[5] c_2[6] 
65 1 22.1144 21.6456 3.43222 27.9505 939097 755994 1.56752e+06 15664.7 -22891.8 179502 
3 1 23.8014 21.7707 1.5518 13.655 -525248 97931.2 -235008 -449004 207808 423708 
69 1 25.2712 21.7924 3.59109 12.8984 913765 -241255 653788 81699.7 69976.4 131054 
7 1 27.0759 21.7731 1.81371 14.1735 186619 -407854 185036 262514 -253320 -165506 
73 1 29.0165 21.611 3.52144 15.573 533973 -125486 530768 -120406 -105558 238413 
9 1 28.983 21.4869 0.119215 11.7333 1.08562e+06 971409 1.39049e+06 -162205 -171939 -144693 
11 1 30.7948 21.7068 1.78956 16.0382 232643 -182466 184593 -189768 301634 190108 
77 1 32.6111 21.498 3.66774 11.101 1.04008e+06 817290 1.00877e+06 -47314.5 -238362 -120016 
15 1 34.2969 21.7775 1.79936 14.8223 -180700 -535637 57789.9 584855 190327 265411 
2793 1 36.0576 21.7506 3.68097 14.8008 406134 -650439 143524 573077 289432 -503267 
2721 1 36.1497 21.5839 0.232497 10.8376 1.41187e+06 856368 1.37083e+06 -8931.19 532264 29349.8 
4 1 21.8099 23.5375 1.81742 16.3149 302152 276432 634515 -336081 -101102 -294502 
81 1 21.6593 25.2498 3.61015 11.6385 691593 1.2427e+06 1.37968e+06 51380.1 -64533 -354975 
19 1 23.4719 25.3492 1.65427 0.562531 -51475.6 -70904.2 211381 -346937 133649 -192776 
8 1 25.4489 23.539 1.85298 0.508634 -373695 -1.30635e+06 -194286 -263739 45994.1 13133.9 
66 1 23.6087 23.6005 3.54296 0.531726 -760954 2850.36 484124 177706 -119939 24288.2 
85 1 25.4458 25.341 3.62845 0.343959 618688 344480 603887 -382782 103649 -24183.5 
23 1 27.2005 25.2709 1.80291 0.237527 -259252 71288.6 47176.1 -230601 215531 -86765 
12 1 28.9213 23.4687 1.94149 0.575882 -356799 -170319 -75924.7 197716 109965 243199 
89 1 28.9696 25.3513 3.64838 0.269745 -264280 35413.7 350250 -45481.5 -266138 -25512.1 
70 1 27.1776 23.4014 3.66518 0.391486 -365471 -137935 -674006 -98074.1 -235296 -7479.32 
27 1 30.7151 25.4202 1.79368 0.425536 456791 631865 40370.3 -194927 60694.4 -243977 
16 1 32.6096 23.4188 1.81414 0.542999 -114225 -273741 363145 364179 247941 -375654 
74 1 30.7561 23.408 3.66204 0.213413 62587.7 -73298.2 -64521.3 -502850 -133039 -117275 
93 1 32.492 25.2329 3.60203 0.317212 101002 372951 225269 -71798.8 162949 8490.89 
10 1 30.6724 23.4731 0.120161 0.378395 694692 146739 12276.6 59472.8 5895.05 377724 
31 1 34.2553 25.5191 1.80704 1.33644 -600338 49706.5 -303687 27341.1 255665 -309780 
2724 1 36.1182 23.5677 1.94292 0.327188 731688 -177644 257771 -453309 214896 15482.9 
2739 1 36.0681 25.3433 0.163678 0.406438 277971 456748 -350702 -89583.5 155360 -132001 
20 1 21.7242 27.1613 1.69183 17.2326 519364 1.43341e+06 1.52509e+06 85469.9 -139536 134956 
97 1 21.6762 28.9961 3.55458 17.1168 191779 852585 527856 -81035.3 257981 413558 
24 1 25.2966 27.1173 1.76873 0.157584 425322 191790 22806.9 -355207 334092 83590.6 
35 1 23.4775 29.0284 1.88966 0.490915 -228328 522588 653637 -18616.9 292111 174684 
82 1 23.4788 27.1035 3.53065 0.392906 562003 684587 319589 4405.08 362799 26865.9 
101 1 25.4184 28.9318 3.60776 0.430744 -82684.4 26830.3 -620865 -62748.9 709562 420648 
28 1 28.8356 27.2186 1.84442 0.433282 -506509 -763947 -306071 74904.7 94090.8 337854 
39 1 27.1058 28.8863 1.88157 0.179923 -822102 -166472 -85007.7 306160 494031 -45839.5 
41 1 28.8807 28.9166 0.085208 0.268909 10890.3 24157.1 -428322 -156281 -249392 327666 
43 1 30.5964 28.9417 1.76903 0.272873 -355908 -45644.8 -291250 -402561 -174101 -431472 
90 1 30.6972 27.0539 3.68198 0.388963 61464 -265841 87977 -300454 162658 -140283 
32 1 32.517 27.2067 1.81871 0.212137 -418019 -541936 -168415 161058 -58748.4 -177279 
109 1 32.5315 28.8864 3.59511 0.188239 225908 83002.4 10562.6 -64690.2 495495 -142342 
47 1 34.304 28.9644 1.84044 0.10877 193103 215701 201654 -355681 364880 -150927 
94 1 34.3396 27.0622 3.66236 0.181766 188599 47505.3 -234132 264508 213397 -576473 
36 1 21.6366 30.6932 1.76113 17.7958 405989 592864 915047 128229 168685 272247 
113 1 21.6329 32.4771 3.60156 11.2499 -109222 1.06337e+06 1.02729e+06 -178846 257121 162424 
40 1 25.3402 30.7331 1.99253 0.564269 360883 -241194 95360 -15200.8 171925 16945.1 
51 1 23.3987 32.5326 1.89903 0.256991 -286078 208655 -633782 -142022 160701 -757102 
117 1 25.2592 32.5821 3.59823 0.296265 -434555 -276671 -51372.4 -51480.6 271561 -92231.5 
44 1 28.7459 30.7956 1.82087 0.50581 239636 5223.95 54904.1 314367 -279415 -198119 
55 1 27.1018 32.622 1.93416 0.299372 -194721 -158603 135206 223361 249176 -257303 
121 1 28.9336 32.4945 3.6616 0.490302 -457975 84681.7 -374230 -112367 55493.1 43378.4 
48 1 32.4227 30.7329 1.84108 0.269011 -133159 192828 -380229 -60145.9 -15125.7 255831 
106 1 30.6358 30.6628 3.56653 0.704059 -11317.7 154592 165661 38156.9 243918 -80533.7 
63 1 34.3216 32.512 1.89559 0.25086 -165500 -410207 -599697 64780.9 203051 251371 
2760 1 36.1295 30.7375 1.84333 0.0979077 -357726 -303038 -525017 290700 -409098 -80610.9 
110 1 34.2236 30.7792 3.57266 0.433274 161935 -250113 -277695 -184390 96336.2 21230.3 
46 1 34.3685 30.8045 0.0909295 0.360051 -6174.39 -542304 -96027.6 515050 -132360 -167128 
52 1 21.6111 34.4436 1.90761 16.7145 342972 1.08028e+06 646376 -38465.4 -378040 -111215 
56 1 25.2537 34.3986 1.85656 0.155811 443909 -104243 34868 -40221.5 94089.1 -43802.2 
114 1 23.3751 34.227 3.58389 1.02046 -536378 -539754 -722655 285448 27962.4 116517 
53 1 25.1525 32.6339 0.0862211 0.493446 129017 -257560 227518 -425247 43938.3 156751 
60 1 28.8497 34.4469 1.86855 0.168848 -133682 95205 220611 152322 -156553 -187585 
118 1 27.0675 34.3715 3.6641 0.0578434 164355 -402152 -556051 -362186 -183802 -243235 
59 1 30.6794 32.6841 1.87116 0.609745 293711 27421.1 239856 -77588 121490 -204040 
125 1 32.5397 32.7034 3.58429 0.487537 -414538 -103369 -510462 295201 147836 139963 
64 1 32.5092 34.3758 1.76394 0.301188 85754.2 70365.9 54862.7 -289192 372172 740836 
122 1 30.7215 34.4427 3.56047 0.300473 -27258.2 -535865 -383797 133627 -226626 94853.3 
62 1 34.3624 34.3104 0.100655 0.199705 173262 89788.5 -41125.4 31298.2 54524.6 4089.43 
67 1 23.5196 21.8167 5.5565 14.1924 -927231 -358590 551341 381344 294954 -75445.7 
133 1 25.4075 21.8807 7.19871 13.8782 662945 -24590 -89616 64490.1 -213536 186095 
71 1 27.1767 21.6849 5.45068 16.2487 967107 194404 920096 -475529 148200 258648 
75 1 30.6641 21.6242 5.36566 10.1835 881929 -49796.7 823285 247493 -494424 83388.5 
141 1 32.545 21.602 7.05351 16.1055 51851.7 -42868.3 180775 -150203 483487 250479 
79 1 34.3042 21.5823 5.39238 17.712 132508 -81571.8 -125590 119008 506472 -86399.4 
68 1 21.8281 23.389 5.40187 15.3687 9754.43 318928 1.49756e+06 751923 -77613.8 445215 
145 1 21.7536 25.3419 7.217 17.2496 -106426 1.1397e+06 840343 -51942.1 145173 141398 
72 1 25.2683 23.5271 5.42593 0.449941 412268 -467752 -130162 -408255 59379.9 300567 
83 1 23.4764 25.419 5.45739 0.496653 489196 803306 360826 169552 167352 -59712 
149 1 25.3493 25.3191 7.26957 0.130871 -270666 124309 89041.4 -331999 295216 15005.3 
87 1 27.1478 25.2597 5.54179 0.403256 466118 29455.7 -207882 260016 73965.1 470850 
76 1 28.917 23.3643 5.37463 0.470175 -685614 47252.3 226059 -3537.8 -144532 -110733 
134 1 27.2742 23.6039 7.26048 1.13522 154209 -45063.4 -280192 -252694 -323759 363967 
91 1 30.7256 25.2728 5.39908 0.175399 184483 206664 -483970 21009.8 -9392.81 -36614.2 
80 1 32.5597 23.4063 5.40006 0.145103 -460811 -527080 -276783 -136806 -279139 361343 
138 1 30.6599 23.3548 7.20756 0.427956 738923 109550 487971 343932 -333381 207809 
157 1 32.5105 25.244 7.23511 0.166136 -309599 -68540.2 -895790 299795 -112142 463094 
78 1 34.3791 23.443 3.73051 0.478134 -598779 -235432 -191851 570153 180170 -264975 
95 1 34.2333 25.2227 5.53018 0.704127 251328 -33006.5 186640 40330.1 184161 150138 
142 1 34.33 23.3389 7.11368 0.560655 -412938 -571117 -224811 -472461 -10580 -17639 
84 1 21.667 27.2085 5.2743 10.4962 523536 984774 880953 75856.6 259161 -182869 
161 1 21.7827 28.807 7.17132 15.5389 109706 86280.5 532250 312893 -166208 -262971 
88 1 25.4904 27.1991 5.47215 0.65089 277683 -71090 39561.3 50633.7 138606 -251376 
99 1 23.6036 28.9413 5.26745 0.760033 -94913.6 -363433 108588 -144777 163309 114158 
146 1 23.51 27.1208 7.26263 0.306404 -539087 -323859 21129 154754 197500 -438686 
165 1 25.3403 28.8945 7.21788 0.192492 -189594 -309334 -975478 -63496.3 397544 -181037 
86 1 27.2377 27.0757 3.71816 0.391266 -323766 -3276.21 245468 -29379.1 659484 261058 
105 1 28.9049 28.9639 3.69396 0.139252 -48481.7 -168203 229071 -459327 29149 -29515 
92 1 29.0398 27.2518 5.56893 0.781503 -327824 289578 -331689 -69218.5 -140296 93994.9 
103 1 27.1327 29.0412 5.58466 0.465983 -620416 -496150 -321613 -220285 142343 19472.8 
150 1 27.2064 27.0891 7.28008 0.319508 20705.5 -9494.1 -245832 -5588.63 -55735.2 49966.7 
107 1 30.8394 28.9185 5.44832 0.351682 90748.2 35248 389305 -424150 41495.7 196985 
96 1 32.59 27.0666 5.47158 0.10562 -306308 -207570 -59761 213231 277349 1812.13 
154 1 30.7926 27.056 7.19088 0.394853 -947286 -36764.6 -516450 -334390 -339868 98950.8 
173 1 32.6256 28.8455 7.27044 0.486218 -205171 -364001 -205655 19910.2 -112040 31900.4 
111 1 34.378 28.88 5.45767 0.172557 -188937 227099 17666.8 -329724 16561 -78110.8 
2901 1 36.149 28.9757 7.18772 0.370843 121989 64618.5 -193572 29361.9 69056.9 11588.4 
100 1 21.7263 30.7165 5.45773 15.7576 -293131 934719 304247 69076.9 -290319 -60332.2 
177 1 21.6369 32.5341 7.17468 19.0368 484388 1.16447e+06 878293 130977 25006.7 -58216 
98 1 23.5064 30.7803 3.7412 0.490022 -422092 -479358 -421977 -130800 225055 412256 
104 1 25.3045 30.7353 5.44938 0.219334 -595218 188494 -117125 -103430 201843 14305 
162 1 23.4727 30.7105 7.09326 0.320045 -596855 524873 -197913 13269.4 -82502.2 -15474.7 
102 1 27.1402 30.7868 3.78196 0.427236 -509718 -265585 -374353 -298337 41212.7 31950 
108 1 28.9707 30.8146 5.51076 0.156261 23201.4 23370.5 -408848 -184301 -94190.7 250563 
166 1 27.1423 30.8068 7.2697 0.0686048 -388910 -555635 -586073 165464 111302 -447655 
112 1 32.4636 30.8556 5.38462 0.495717 36511.7 303757 531200 -328171 300425 -189576 
170 1 30.7922 30.8412 7.27669 0.241677 132592 102999 -203112 -214301 -178140 -89859.8 
127 1 34.3008 32.518 5.40811 0.212116 -433384 95307.1 -435405 -183493 -192831 81911.9 
174 1 34.2899 30.7317 7.25986 0.163003 -198638 -502133 -157931 -215500 239646 71400.6 
2832 1 36.1054 30.6819 5.44215 0.214452 165372 -218545 -334064 -137972 141591 72594.5 
2919 1 35.9734 32.5749 7.18291 0.887653 -77911.7 -256933 -445576 -155592 -184131 381843 
1353 1 21.6253 36.0424 3.74192 15.1164 30057.7 164040 -141453 204280 4757.8 66874.8 
116 1 21.7198 34.4142 5.49043 16.2085 -5831.59 424950 503285 222369 -55883.5 645921 
115 1 23.4435 32.6667 5.42155 0.477746 -334124 -411019 -60517 -124346 132776 335919 
181 1 25.3407 32.6361 7.21403 0.144859 426558 10530.7 -328311 217729 -19481.9 474613 
120 1 25.2052 34.3777 5.55008 0.654092 -90091.4 -348371 249859 -335070 420189 225542 
178 1 23.4868 34.5289 7.25341 0.380187 -785570 226976 -600965 200646 177817 184887 
119 1 27.1584 32.6386 5.42824 0.199389 156525 -131812 -183177 -98489.2 236613 -68916.7 
124 1 28.8798 34.4351 5.46365 0.199626 -202945 -84624.2 -300533 -70436.7 125556 -17501.9 
1359 1 26.9822 36.1332 5.39706 0.643505 -80818.5 51205.5 -143644 -106617 382483 199907 
182 1 27.2155 34.4689 7.23202 0.535121 -148697 -420742 -408320 -174723 289153 50184.5 
123 1 30.7536 32.6567 5.37915 0.255262 -234247 49659.5 415626 -115065 -119897 128327 
189 1 32.5945 32.6403 7.19434 0.324069 24560.6 -262594 -252362 -163108 179582 -104256 
128 1 32.4992 34.3968 5.42882 0.111374 -513952 -1.00414e+06 -281219 12931 -57606.6 261829 
186 1 30.6792 34.3932 7.2836 0.130124 -84269.7 -526072 -343539 -155635 -152296 241550 
126 1 34.3765 34.376 3.69164 0.157339 293212 -43755.9 278422 -386045 92215.6 -186632 
190 1 34.2986 34.4645 7.22263 0.354862 -379318 -191129 266179 -185204 88863.9 111692 
129 1 21.9425 21.8111 7.3089 28.1431 64973.6 493099 476280 -41117.6 306817 163098 
193 1 21.7689 21.9776 10.7615 25.2403 485728 349447 654736 -19349.1 -129814 281045 
131 1 23.6457 21.8235 9.08849 14.6545 30230.6 21477.9 203743 -429660 -514052 -15551.4 
137 1 28.8295 21.4588 7.35395 10.839 1.28836e+06 1.11434e+06 1.48511e+06 -36437.5 -579843 -33307.5 
135 1 26.9204 21.692 9.1453 14.5762 939321 188391 974642 360833 -122483 -222099 
201 1 28.932 21.7415 10.8804 15.9982 741861 -359852 950800 -319952 -70264 -89719.3 
139 1 30.7906 21.4957 8.78466 14.7139 1.3617e+06 756077 1.2726e+06 -130875 -134813 556663 
205 1 32.5133 21.5189 10.864 17.4123 968706 419086 1.07202e+06 8383.09 346512 -335273 
143 1 34.1818 21.5915 9.04766 14.7031 949189 24422.8 580514 342554 -199237 -329192 
2937 1 36.0472 21.6366 10.7507 15.2669 926839 204586 740376 314079 75077.4 240856 
132 1 21.6759 23.6428 9.03895 16.6502 260740 209114 403017 -371201 -57075.6 429271 
130 1 23.5777 23.6415 7.329 0.409875 -813954 -1.15545e+06 -341614 -278522 -16945.9 -462074 
147 1 23.5183 25.3149 9.04516 0.267987 -220227 -860166 -517564 199789 6861.63 270965 
136 1 25.3511 23.5447 9.09303 0.272691 -579519 -993842 -332118 78685.4 -217219 -131151 
194 1 23.5225 23.6953 10.7799 0.999621 -781755 -1.04656e+06 -184174 268090 29353.4 47183.4 
213 1 25.4536 25.3246 10.8792 0.474356 -256703 15534.7 -252569 -108582 -166774 -268401 
153 1 29.081 25.3197 7.30737 0.543434 -470624 -262066 162689 -402526 -124270 181578 
151 1 27.1725 25.3875 9.08764 0.233136 99546.3 -179770 -409978 243040 105944 -210460 
140 1 28.8185 23.498 9.09039 0.658191 324033 300241 -67809.3 -98608 -386868 355792 
155 1 30.7227 25.2574 9.11344 0.32013 31220.4 517007 -48795.3 125203 -427984 41645 
144 1 32.5887 23.4376 8.86221 0.834561 -285212 -557211 235558 -81900.1 -253685 265990 
221 1 32.4669 25.2186 10.8839 0.241995 -384837 315227 728.497 82065.8 -131803 19153 
202 1 30.7522 23.3293 10.84 0.375222 282541 -21232.1 851009 -468786 -201363 262998 
2955 1 36.064 25.2024 10.8044 0.14948 403021 247950 291008 85066.8 304619 116781 
159 1 34.1879 25.212 8.96724 0.492249 -432259 -308148 159528 -399501 -414252 158197 
2868 1 36.0824 23.414 9.05685 0.252707 536216 -542108 -607564 313155 191897 402172 
206 1 34.2584 23.361 10.7421 0.225564 -122036 -511115 -297403 156868 202496 -189653 
148 1 21.8554 27.1383 9.07263 15.7057 -322930 845234 662602 89782.9 96369.5 -66415.8 
152 1 25.3167 27.1878 9.03721 0.136445 -50690.1 -85573.3 -75443.3 130797 -165161 31336.2 
163 1 23.5578 28.9317 8.99612 0.0998006 -748863 -566953 159215 135835 -74772.5 -202949 
229 1 25.3069 28.9575 10.881 0.176519 -22360.8 -187737 216972 -649013 -239032 -434833 
169 1 28.9371 29.0546 7.29842 0.264847 -78637.8 -129685 -524006 47515.8 -324527 -114774 
156 1 29.0814 27.1981 9.04447 0.595188 8882.71 -225811 -212272 -110968 4374.1 -365539 
167 1 27.1056 28.9564 9.00146 0.151456 -208064 -299807 -395885 -192202 -48873.1 49988.8 
214 1 27.1923 27.1753 10.7627 0.461677 51477.2 -423536 179841 -441992 -112945 -112869 
233 1 28.8969 28.9074 10.811 0.19504 -49064.9 -240744 -199040 -395166 -278080 -448025 
171 1 30.7133 29.0628 9.04122 0.450997 -269547 -19378.8 215292 -516596 -167631 -86985.1 
160 1 32.5441 27.1296 8.98296 0.299013 137473 284519 -156090 23193.1 -148345 301544 
158 1 34.3463 27.1407 7.30963 0.419583 -430472 38368.5 -286249 177259 -106925 238707 
2886 1 36.0675 26.9903 9.03988 0.370429 -257875 518446 119880 223605 -206880 94024.9 
2973 1 36.0253 28.8924 10.822 0.308434 -243185 312735 -162531 -72062.4 -192844 26869.6 
175 1 34.3529 28.997 9.0883 0.306116 -395217 -306701 -443090 -49998.4 -641106 66589.8 
222 1 34.2786 27.0736 10.7825 0.134891 145428 334419 355847 -111135 63655.1 167961 
164 1 21.7333 30.5634 8.89457 14.4253 193135 1.1896e+06 1.04444e+06 334309 53606.1 -93464 
168 1 25.2835 30.7604 8.91947 0.227158 35780.3 245264 93928.6 -40190.1 175561 -53841.1 
179 1 23.4533 32.5903 8.91002 0.289041 30645.8 499678 539902 262036 -1038.86 306502 
245 1 25.2159 32.5873 10.8039 0.166065 428151 276275 824018 -21781.3 -157066 -63689.1 
226 1 23.4753 30.8225 10.722 0.547884 232157 608247 904109 -308151 -117974 -37992.5 
185 1 28.9432 32.6137 7.29194 0.145681 -581279 -200724 -271703 -120282 -171572 -6989.01 
172 1 28.8615 30.8028 9.08308 0.165885 -418920 -837629 -719281 148623 -466180 -509914 
183 1 27.1363 32.6146 8.98447 0.170102 -155557 220510 62661.3 82085.3 -177177 -127341 
249 1 28.8927 32.4994 10.7758 0.306074 120956 -105918 -328686 238585 -88998.7 -306586 
230 1 26.9683 30.6952 10.8166 0.321305 -76910.2 -65352.5 48510.5 -448265 16640.4 -357605 
187 1 30.6999 32.5834 8.98182 0.240749 -134111 -393616 -530500 -162733 -162755 29721.4 
176 1 32.5554 30.714 9.03813 0.18186 -535272 141874 72147.2 -165154 32031.1 787.517 
234 1 30.6827 30.8161 10.7928 0.238064 -206517 -234133 -34387.7 199643 -302040 -222739 
2904 1 36.1299 30.7525 9.02399 0.231756 -19261.4 -259899 29070.8 -85836.2 -254234 -287364 
191 1 34.3614 32.501 9.0757 0.255872 -81354.1 -79907.9 -389.727 -60034.6 228141 -23279.7 
238 1 34.3538 30.8047 10.8778 0.278313 -122162 -134796 -257108 129350 -49286.5 -108331 
180 1 21.7045 34.3686 9.01799 17.0966 375502 720863 922376 132173 148156 347224 
241 1 21.697 32.6545 10.8126 16.3034 600399 1.12455e+06 1.00746e+06 35854 -9943.82 -79086.1 
184 1 25.2477 34.4348 8.99549 0.22855 256769 63331.8 32466.1 -112698 -319877 -117652 
188 1 28.9234 34.4067 9.16506 0.419566 -221698 -83390.8 132014 -143595 -153281 64174.5 
246 1 27.0067 34.4688 10.8817 0.510105 -145853 -94574.5 -258934 348459 161675 6281.56 
1435 1 30.7192 36.1377 9.0944 0.155037 -168238 63485.8 -78336.2 42242.9 54972.1 21258.3 
1509 1 32.517 36.1294 10.8229 0.1971 -384321 -222796 -275141 -77063.1 12303.8 -238542 
192 1 32.4978 34.3449 9.03813 0.127276 -34443.2 -211280 -292998 -46479.9 47639.9 -130974 
250 1 30.764 34.3657 10.8735 0.215503 -149193 -69493.7 -360558 -83219.1 -199800 303386 
4404 1 36.0766 36.1005 10.8767 0.196439 51655.9 290383 -362201 -45196.6 -205627 239188 
2922 1 36.1038 34.3142 9.09831 0.248872 25589 138074 146845 -74393.6 -61362.3 -126364 
197 1 25.1614 21.7213 10.93 14.9845 871210 393664 477125 -19194.7 -125835 -38638.7 
195 1 23.3091 21.7967 12.6796 14.7795 231965 588384 1.07882e+06 296041 -109704 -121838 
261 1 25.2209 21.7326 14.3563 14.908 759718 -138630 784848 -83654.4 251998 564819 
199 1 27.1824 21.6204 12.6889 16.533 914593 256195 912323 -261793 121244 -146608 
265 1 28.9605 21.6788 14.4484 17.2524 832513 356215 647241 -112981 30199 101967 
203 1 30.7158 21.5815 12.6824 17.4234 873099 375505 819419 -35976.9 230510 102094 
207 1 34.3498 21.6327 12.6357 17.3974 554217 40354.1 952222 107318 64700.9 -26237.7 
209 1 21.7183 25.2273 11.0211 12.9381 -149524 532915 659468 573649 -219165 -36583.5 
196 1 21.5808 23.5156 12.6987 16.3251 636324 38198.3 747963 382628 123758 163144 
273 1 21.654 25.462 14.3424 13.9969 103064 421121 487656 -422335 164929 285390 
211 1 23.5468 25.2971 12.6887 0.321476 -131009 -215982 -415210 52836.2 -103187 -188869 
200 1 25.3044 23.4976 12.7237 0.293516 -167646 -195270 -540999 79082.5 -135849 403549 
258 1 23.5709 23.6256 14.4966 0.397886 -60857.7 -619026 -252456 -235498 367315 122658 
198 1 27.0889 23.471 10.9075 0.15496 -249457 -390905 -69272 436274 -30054.8 -326799 
217 1 28.9414 25.2951 10.9024 0.143453 -263164 478821 -171103 -206277 -50842.8 -138956 
215 1 27.1362 25.3216 12.6092 0.265195 -655138 -30981.3 -436121 -121148 -425847 -164035 
204 1 28.9324 23.402 12.6577 0.104818 125301 -776065 -285363 -248925 -880.263 -320769 
281 1 28.8745 25.1901 14.4073 0.467083 138007 -47179.9 -327820 62908.8 36873.7 -17625.8 
262 1 27.0188 23.4504 14.3758 0.782394 -314789 -301639 -242389 -185207 -180094 187445 
219 1 30.7218 25.1925 12.6053 0.176348 -12204.5 281987 -267612 -251931 92360 236921 
266 1 30.7924 23.4604 14.4736 0.144954 252246 96171.1 380431 -220713 65387.7 215535 
208 1 32.5626 23.307 12.6244 0.248004 214943 -119447 426975 100155 159523 -13280 
285 1 32.563 25.2454 14.4482 0.0765571 465077 170519 162964 -276091 4783.39 90194.8 
2940 1 36.1051 23.3969 12.6148 0.145264 199805 -529367 -87022.7 98374.5 256938 -140378 
223 1 34.2959 25.1962 12.5497 0.206034 -98426.1 381599 -163851 94860.8 -706.115 -264389 
270 1 34.4724 23.3792 14.4897 0.392145 -251110 -297029 185025 -54272 379830 -32731.1 
3027 1 36.1496 25.1321 14.3587 0.46512 -218148 -444815 -43294.2 -176858 -101079 -175311 
225 1 21.7177 28.9517 10.9108 15.6966 333376 778992 931596 159803 -329629 189937 
212 1 21.656 27.1259 12.6358 11.3179 -107058 40936 69503 -313372 -137081 479014 
210 1 23.5195 27.1989 10.9183 0.320034 -46181.4 453510 39657.6 -21562.7 -160553 -253134 
216 1 25.3368 27.0576 12.7148 0.321191 -62629.1 -87045.1 175532 -181708 -73304 55615.4 
227 1 23.4038 28.8476 12.7126 0.599504 -324015 -183396 -348288 -331274 -10866.2 -65645.5 
274 1 23.4457 27.1013 14.3624 0.5844 -766917 -718324 -448435 2951.83 -149403 433628 
220 1 28.8872 27.1183 12.7517 0.447879 -391832 313471 -43614.9 -379790 173019 112485 
231 1 27.0094 28.9146 12.7193 0.30585 -578386 -235325 -115111 -274294 -150119 36687 
278 1 27.1996 27.1119 14.4881 0.358452 -182164 -116477 -357373 -171019 250361 102787 
237 1 32.5056 28.9629 10.9057 0.177047 479005 278755 250552 118414 134517 -145848 
218 1 30.7182 27.0596 10.9262 0.2346 175307 -84196.9 104678 -5000.51 -409456 -263004 
235 1 30.6369 28.9129 12.5927 0.257792 -161952 30564.7 151243 -138749 -40593.4 -260243 
224 1 32.5235 27.056 12.6834 0.1526 26668.3 -87392.3 -273284 20230.5 -53089.3 -300537 
282 1 30.7043 27.058 14.4047 0.151832 -54985.5 699005 -182395 -230188 83692.6 -16783.2 
301 1 32.5411 28.856 14.3589 0.122343 199766 11036.5 -136180 -285563 403066 -118762 
3045 1 36.1405 28.8452 14.4931 0.18544 -322423 -114377 -169449 -481021 -261913 -266062 
239 1 34.348 28.8869 12.718 0.294516 -351219 -178078 -292504 -2899.46 312637 40404.7 
286 1 34.4319 27.0279 14.3421 0.533696 -444933 2505.7 -394349 -205412 380353 226184 
2958 1 36.1078 27.0706 12.6642 0.232103 -339249 331985 -132674 -78715.9 330867 15820.8 
228 1 21.6943 30.7785 12.7344 16.4375 463450 1.39138e+06 1.18825e+06 -141457 -390324 -174209 
232 1 25.2149 30.6907 12.6587 0.219979 365145 314367 21295.4 87932.9 -17305.8 -31958.5 
243 1 23.4247 32.6096 12.7317 0.276196 -181556 26124.2 9134.43 15799 -42742 46307 
294 1 26.9707 30.7792 14.4447 0.277342 -496769 -721468 -366228 82655.8 59447.9 -17482.7 
247 1 27.0902 32.4761 12.5842 0.335424 225182 -26161.2 289192 91666.3 -222716 -78149.2 
313 1 28.9091 32.5413 14.3535 0.424665 -162949 -46437.6 91877.2 384913 65795 108270 
236 1 28.7811 30.628 12.6289 0.545544 12097.2 -422758 -311101 218113 -128604 256816 
297 1 28.8191 29.1123 14.4749 1.18935 -309772 -464382 -804029 -401222 28581.9 -42321.3 
317 1 32.4291 32.596 14.496 0.198481 20227.6 144671 -17211.7 -388.571 399379 357361 
253 1 32.5102 32.5563 10.9166 0.131398 -453407 -240091 106731 -132566 -40371 158662 
240 1 32.4678 30.7121 12.6225 0.124494 -54225.4 -109378 -156425 -195990 -177775 41719 
251 1 30.6624 32.591 12.6297 0.0951461 -16505.2 123433 -387201 181703 380518 245417 
298 1 30.6341 30.736 14.4072 0.212542 27043.2 -147852 357960 -303496 72235.4 13794.7 
302 1 34.2759 30.7284 14.3733 0.352229 -148361 207681 -550698 -138716 482723 31212.4 
2976 1 36.116 30.6973 12.6584 0.141653 139573 618779 71674.7 -143199 -103910 267676 
255 1 34.2254 32.5429 12.7047 0.240468 415815 -201651 -120761 -122555 -251483 217382 
1497 1 21.755 36.1316 10.9353 15.8986 -107422 1.06249e+06 893343 102102 232236 5032.45 
244 1 21.5982 34.2649 12.6173 16.9178 375460 568900 641576 441492 218433 -15991.4 
242 1 23.5401 34.4301 10.9493 0.451508 -391555 -224790 470732 167532 58476.5 272534 
248 1 25.3386 34.3359 12.7174 0.160382 -276768 131709 -396144 -187336 31679.7 -3672.47 
1503 1 27.0899 36.1325 12.7047 0.207909 205028 -252970 -272032 -79929.5 -8630.79 -9318.04 
1577 1 28.915 36.086 14.4849 0.153935 -237966 -125690 88059.5 270578 119005 25512.7 
310 1 27.1103 34.2529 14.475 0.25885 -149499 -144599 -370909 15907.6 -307789 416158 
252 1 28.8374 34.3216 12.6512 0.191648 8975.74 -339894 -6015.37 228284 1261.18 112518 
1581 1 32.5368 36.1403 14.4716 0.0981641 29310.2 -277955 -260303 273972 1395.41 -46488 
256 1 32.4663 34.4027 12.704 0.111607 -450299 -313071 -493329 40828.4 -120221 -121323 
314 1 30.6563 34.3984 14.4962 0.141384 -290302 -441234 -49226.1 395052 106779 115417 
2994 1 36.0865 34.3172 12.6485 0.187256 73708 227079 571533 152751 -287170 339581 
254 1 34.2846 34.3046 10.9096 0.167412 -53711.1 -137942 -186511 -456068 -113648 -17958.5 
318 1 34.2593 34.3647 14.5015 0.0970523 -98782.8 185545 199259 254554 -211266 -7312.06 
1511 1 34.3424 36.1263 12.6279 0.182428 -149273 -396360 -156791 350039 347700 -399669 
257 1 21.7849 21.932 14.6774 25.0989 397361 378616 1.16966e+06 33989.4 -119184 -313150 
321 1 21.7031 21.8329 17.8632 32.7654 870808 808584 1.46701e+06 378460 76985.7 115381 
259 1 23.6443 21.864 16.271 14.6041 106630 317514 268791 -227724 -432438 181446 
325 1 25.2718 21.782 18.0352 11.3573 60315.3 249539 -12243.4 -378135 2387.03 -62283.3 
263 1 27.0993 21.8127 16.2322 15.1898 985532 -155531 747647 40242.1 141755 -127243 
329 1 28.9244 21.5986 18.0537 18.8734 1.29426e+06 759215 1.47273e+06 -13905.3 -84315.3 -14581.1 
269 1 32.6018 21.5648 14.5217 11.8599 805908 474755 739022 -76366.2 405442 -114423 
267 1 30.863 21.5995 16.1692 17.2251 1.0348e+06 580447 1.06766e+06 -107664 285688 182655 
333 1 32.735 21.6865 17.9858 15.5247 626997 -73036.4 601815 -376423 352219 34015.2 
271 1 34.4354 21.5673 16.2762 11.7403 658175 451533 391497 60780.9 377995 56614.7 
260 1 21.7489 23.7455 16.2997 14.0342 -175907 484507 701626 -498127 -280577 -116617 
277 1 25.3836 25.3966 14.5593 0.588829 -139420 -744607 -636339 -157613 161688 171851 
275 1 23.5148 25.4024 16.2008 0.309893 -937857 -1.27491e+06 -225892 -477775 138597 331157 
264 1 25.402 23.6442 16.2829 0.365348 -459307 -594811 -284150 -72027.6 -80520.2 315212 
322 1 23.5021 23.7949 17.9863 0.934407 -43438.2 131810 -691409 -126721 228295 187923 
341 1 25.4503 25.4819 17.9949 0.805402 -101070 -128848 -284796 -330869 184625 -50789.4 
279 1 27.2568 25.3488 16.3019 0.409777 -510733 -31084.3 -354376 -356855 255554 -4226.89 
268 1 28.9757 23.4836 16.2582 0.193367 353060 40581.6 473081 -268034 18550.3 43564.8 
326 1 27.1015 23.4488 18.0738 0.20892 -2246.54 -286610 -310496 -307976 -119932 -337057 
283 1 30.7318 25.2973 16.3056 0.242575 -22279.1 -329030 106931 92888.6 -37877 -41388.5 
330 1 30.7558 23.4545 18.0311 0.117224 613270 171873 416925 133793 -323078 494905 
349 1 32.5632 25.3423 18.0216 0.267358 -357892 32595.3 -536889 70574.8 147619 -177181 
272 1 32.6432 23.4523 16.24 0.076492 244692 -177906 40653.9 -299560 -157716 266898 
287 1 34.3243 25.2793 16.3093 0.339797 -675343 -477669 97525.7 -367306 113230 -686.745 
334 1 34.4126 23.4403 18.0437 0.0797752 -573529 -472581 -619641 -598491 190028 112377 
289 1 21.7625 28.9171 14.5418 15.5011 -265021 636865 568128 89097.3 18763.7 -109660 
276 1 21.6837 27.0152 16.3163 14.6225 71510.4 944402 673693 234305 -177635 321482 
293 1 25.3075 28.9852 14.513 0.306908 -35062.8 18665.7 -475588 -328201 -80004.2 95594.6 
280 1 25.2488 27.1309 16.2419 0.390136 270177 -738572 -333555 -316888 145172 59017.2 
291 1 23.4431 28.9216 16.322 0.198451 -256554 275604 344604 201337 -246223 476532 
338 1 23.4711 27.1956 18.0748 0.288843 273477 153973 -105795 -218709 39253.5 738442 
284 1 29.0455 27.0465 16.2318 0.501589 -587865 404747 176762 -228788 110109 -39967.9 
295 1 27.0429 28.9609 16.2132 0.315331 -227785 -47926.9 -421320 -356685 15719 -93620.8 
342 1 27.2668 27.1333 18.0253 0.563511 11585.9 -196490 408361 -352156 24864.9 -370092 
299 1 30.7386 28.9175 16.1895 0.167043 381153 127595 31278.2 -111481 -203524 -386615 
288 1 32.5805 27.0456 16.152 0.226799 170651 -385391 93893.3 7682.47 -118409 -72809.7 
365 1 32.5043 28.8327 17.9713 0.197561 -544199 -46283.9 -155927 -100724 -74746.6 -135718 
346 1 30.7668 27.0608 18.0802 0.0985739 -133467 -397082 -327043 -91457 -266609 -297928 
3030 1 36.1288 26.882 16.2631 0.832878 -292101 143359 414435 64908.9 167601 224251 
303 1 34.3517 28.8459 16.2454 0.102386 -187754 218858 128604 -193793 197592 75526.9 
350 1 34.3744 27.1069 18.0662 0.236889 -150643 -299065 -292108 -160233 161943 -169003 
3117 1 36.0971 28.94 18.0569 0.1883 -291009 203723 -105828 -160114 -127678 -28544.3 
292 1 21.7358 30.7385 16.3156 16.1717 -40877.7 328015 562904 -133700 313597 44283.4 
369 1 21.598 32.5335 18.1013 11.2567 235623 736999 817987 -157034 224161 302425 
309 1 25.2084 32.566 14.5577 0.194594 -771201 -479679 -60136.8 346245 -611577 341867 
290 1 23.4112 30.7968 14.5095 0.19333 -555009 193812 -173395 -291415 -51528.8 101740 
296 1 25.2243 30.7304 16.2871 0.11807 -70038.8 -310226 -159201 -30376.3 47187.1 -99867.1 
307 1 23.4267 32.5296 16.3824 0.163508 -550901 -378311 -41879.3 -93308.6 141997 -47856.5 
377 1 28.818 32.4943 18.0598 0.222477 193264 -228262 263256 -236687 -32602.2 119113 
300 1 28.8277 30.6895 16.277 0.24623 -195319 -116813 -648640 -190721 132237 -561490 
311 1 26.9523 32.5621 16.2109 0.51287 -159670 -150145 -600368 -321016 -369233 153229 
358 1 27.1246 30.6984 18.0286 0.197439 -569898 73721.4 37459.5 -224521 536696 -228185 
362 1 30.7257 30.6263 17.9187 0.735955 112362 182831 27201.2 -140662 -245894 -153292 
315 1 30.71 32.5049 16.24 0.131272 436290 194828 -24764.3 2991.91 352917 -97200.7 
381 1 32.6101 32.5981 18.1123 0.722504 -873873 -238091 -535742 117102 123070 207044 
3048 1 36.0816 30.7138 16.2112 0.217115 -56570.1 -762713 -267865 26021.8 203155 -89153.1 
319 1 34.3048 32.5386 16.3918 0.614016 -679433 -226640 -533832 -4947.83 156720 -74084.5 
3063 1 36.1033 32.5782 14.5843 0.47668 271694 -270064 65822.5 -171778 -63841.7 161269 
304 1 32.6389 30.7144 16.147 0.6883 -28422 239199 78364.2 -130439 207791 227550 
366 1 34.2526 30.6643 18.0558 0.260948 -63613.6 -591060 -468961 120953 -197353 162180 