ITEM: TIMESTEP
11200000
ITEM: NUMBER OF ATOMS
5780
ITEM: BOX BOUNDS pp pp pp
2.5800964119418235e+00 6.9719903588073720e+01
2.5800964119418235e+00 6.9719903588073720e+01
-3.5544059516515101e+00 7.5854405951667061e+01
ITEM: ATOMS id type x y z c_csym c_2[1] c_2[2] c_2[3] c_2[4] c_2[5] c_2[6] 
65 1 21.6436 22.0892 0.0601609 30.7822 506718 404884 861409 -188957 502298 -11854.1 
4 1 21.419 23.7096 -1.80122 18.1041 877743 886265 1.4555e+06 -53058.2 -48601.1 30717.6 
3 1 23.2305 21.9 -1.72976 18.7426 707965 761476 1.14789e+06 -141702 262398 -110148 
66 1 23.3097 23.8361 0.067031 0.495508 45425.6 106961 501422 -737400 460987 -230887 
69 1 25.0175 21.8028 0.270747 17.8987 1.77069e+06 1.16686e+06 1.50879e+06 -29788.6 -328536 -174727 
8 1 24.9828 23.6881 -1.75005 0.446544 366183 328781 115754 68441.6 11352.5 -528574 
7 1 26.7371 21.8556 -1.7208 17.9868 1.14262e+06 728640 1.28704e+06 94820.9 -255798 -5632.15 
70 1 26.7849 23.8411 0.0189423 0.71901 196375 343596 598661 813206 92814.9 39314.8 
12 1 28.6486 23.6254 -1.81809 0.284717 459712 -381809 69011.3 -259020 -176380 -28287 
73 1 28.4856 21.9996 0.0516871 15.011 1.03534e+06 -24444.8 855767 -134700 -307810 94197 
11 1 30.4362 21.7703 -1.88826 16.2632 946113 145784 1.12939e+06 -499309 -281921 357430 
74 1 30.3657 23.6455 0.0590474 0.358553 868.147 -619789 354540 -288928 -469996 412916 
16 1 32.0899 23.4872 -2.02351 0.364435 280921 -207499 635782 -331313 -300676 66145.4 
77 1 32.1401 21.8323 -0.0391284 16.5054 606038 454366 770520 -106363 -6024.54 26561.3 
15 1 33.872 21.7027 -1.89761 17.4915 1.05131e+06 329429 1.01552e+06 158295 -500415 -335925 
2793 1 35.5935 21.8429 -0.118159 14.7214 -45252.7 -78498.8 175300 90546.4 67284.5 16532 
78 1 33.9212 23.5869 -0.262598 0.636374 117439 -636278 459995 451130 -79752.9 -72953.1 
2724 1 35.7248 23.4967 -2.06526 0.180263 130310 -91355.5 420578 215245 91810.3 193608 
20 1 21.3939 27.3464 -1.76061 16.0786 332343 1.51589e+06 1.4297e+06 79480.4 -16741.1 466768 
81 1 21.335 25.5223 -0.0199831 17.3954 838026 1.06563e+06 871312 4203.37 151877 227448 
19 1 23.1799 25.5706 -1.83574 0.274555 390613 400353 234308 188469 82489 211553 
82 1 23.1992 27.4056 0.0308173 0.506138 114503 256289 -177226 -117648 -101536 33579.5 
24 1 25.1466 27.341 -1.72834 0.597298 144175 -1.29698e+06 -221844 196792 -86221.8 -143488 
85 1 25.0965 25.5436 -0.0654719 0.365464 228017 -582542 374093 178277 224613 -8499.54 
23 1 26.9512 25.5551 -1.89048 0.315432 -58042.5 24736.5 -202427 43583.4 -212173 -133556 
86 1 27.066 27.2864 -0.0482975 0.481213 -671530 -618259 -445382 82859.9 -64734.6 -384918 
21 1 25.0999 25.635 -3.55247 1.06659 -192520 64362.5 317800 -213667 -37130.7 122950 
89 1 28.7418 25.5698 -0.0475649 0.30093 -417106 328407 128975 640772 -90415.1 -236005 
28 1 28.7231 27.2685 -2.02147 0.245646 -791504 -730692 -409809 -135415 187045 77428.5 
27 1 30.347 25.3895 -1.92511 0.356459 -631411 214259 -164655 -51147.3 -93257.4 16413.6 
90 1 30.6396 27.3066 -0.264137 1.14311 -347541 -301265 -7509 -62454.8 236771 58627.1 
93 1 32.1302 25.3153 -0.135231 0.37079 -556911 -113583 416346 -163844 -172930 146246 
32 1 32.2546 27.1188 -2.02969 0.129944 -811896 -326469 -848948 71808.4 23095.8 -100632 
2811 1 35.8898 25.2694 -0.134141 0.515498 615973 367109 527378 -150857 -150500 322240 
31 1 33.9784 25.3079 -2.07768 0.141658 316147 -260708 108717 220271 283069 -41137.3 
94 1 33.9272 27.018 -0.250088 0.735595 225800 141807 227190 -24449.5 -41753.2 -53240.8 
2742 1 35.8215 27.0267 -1.9713 0.252415 133504 -282157 251211 91482.8 -3807.67 -344801 
36 1 21.5402 30.6726 -1.87788 13.868 359947 1.41015e+06 1.44583e+06 276341 156075 -31891.6 
97 1 21.3868 29.143 0.338564 15.1999 369100 809936 1.1954e+06 27481.3 -376542 27627.1 
35 1 23.3314 29.0056 -1.79496 0.386774 -180639 -117146 437808 344089 -310021 253590 
98 1 23.2866 30.7953 0.094398 0.385633 225690 279829 577685 -80533 -156963 -63140.4 
101 1 25.1041 29.0529 -0.0664324 0.249836 43137.5 -921717 -1.09681e+06 -91977.9 -323618 -222684 
40 1 25.1263 30.7903 -1.89468 0.129388 -44587.8 7288.2 293023 123339 -262848 -121459 
39 1 26.9221 29.0063 -1.951 0.108204 -524594 191592 155338 70898 -196445 162942 
102 1 26.9198 30.8931 -0.107219 0.45539 40303.8 393891 440876 -119826 -347604 169808 
44 1 28.8551 30.8178 -2.13245 0.867147 -121995 -545546 -134267 -115817 186444 -188418 
105 1 28.7562 29.0109 -0.20411 0.233099 -236828 18247.6 -71796.9 -463137 -113533 -337565 
43 1 30.5034 28.9871 -2.07762 0.172673 -541357 -665228 -672849 101596 147058 -122376 
106 1 30.6872 30.6833 -0.161311 0.452959 11740.9 -608432 -122981 88377.5 -61263.7 111726 
109 1 32.4038 28.9808 -0.293311 0.562467 -594276 -774186 368512 28101.5 27390 -123509 
48 1 32.4209 30.711 -2.14265 0.433597 143439 -594788 -176433 -152651 191849 -115977 
2829 1 35.8202 28.8268 -0.212582 0.252542 236291 451414 197896 302008 2901.63 -22823.6 
47 1 34.1405 28.8264 -2.08933 0.2255 -423896 -25700.3 15160.7 279791 -20052.3 -44705.7 
110 1 34.1643 30.7212 -0.142116 0.286017 -304583 -305368 407214 -155611 53227.9 -24762.4 
2760 1 35.9046 30.6654 -2.08834 0.136234 -236592 -462800 -27850.1 61984.7 -294468 -79303.5 
2847 1 35.9794 32.37 -0.298447 0.371152 -970457 -867940 -25740.5 186731 58413.5 -77759.9 
113 1 21.5782 32.7021 0.016005 15.4401 59398.9 754508 932632 -457325 86213.8 63658.8 
51 1 23.3441 32.5179 -1.84802 0.233648 -255560 347278 29162.8 311659 -590413 -305454 
52 1 21.6391 34.4165 -1.71267 15.0461 145493 596115 259913 -114135 -236168 169332 
114 1 23.3972 34.23 0.0108202 0.293306 -1.27253e+06 -323514 555715 19642.7 -485786 -220795 
1283 1 23.4565 36.1213 -1.87166 0.455073 -178188 -392763 -240774 10826.9 -241765 -105729 
1353 1 21.7046 36.1182 0.133814 16.047 440394 577746 565738 -130494 -66899.8 -142494 
49 1 21.6095 32.6543 -3.55167 15.1957 -40512.6 924393 867482 91594.8 -306187 157607 
56 1 25.244 34.2905 -1.91226 0.326201 34467.9 136573 566371 484841 -104246 193794 
117 1 25.074 32.548 -0.00982582 0.314746 -546541 -727229 187962 346921 -185578 -310476 
55 1 26.9399 32.5979 -1.94809 0.268556 163708 -394015 146007 241082 -44684.7 -168361 
118 1 26.9771 34.1552 -0.0248446 0.776946 192080 73246.8 -165210 -185782 -77432.8 57550.2 
1361 1 28.65 36.0959 -0.00172127 0.672005 -431255 -392188 66149.7 191355 -228691 214303 
1287 1 27.0003 36.106 -1.84751 0.271684 -571259 -137475 353805 -167287 -78974.8 -44694.5 
1357 1 25.1088 36.0796 -0.0455117 0.490861 -81741.8 145389 35356.7 13609.9 -189778 165448 
60 1 28.7786 34.3412 -1.97728 0.178747 47270 -144808 380683 -299267 11823.9 -42539.3 
121 1 28.818 32.4755 -0.181894 0.299598 -478783 34956.9 338523 -315648 -53723.2 130928 
59 1 30.6009 32.4879 -1.94502 0.325003 -483356 -189866 -208668 -423890 -45732.2 -329081 
122 1 30.5509 34.2463 -0.16437 0.1348 -6360.57 72517.6 38160.1 -478362 -137786 -210378 
64 1 32.3982 34.2858 -2.01462 0.146515 -10628.5 -247590 -407509 -95132.1 -78683.1 -429302 
125 1 32.4128 32.468 -0.238672 0.156664 -900937 -397531 -58497.3 -413587 -194240 -31928.8 
1291 1 30.5037 36.0633 -2.04595 0.208629 -230030 -413975 491392 -400627 -166451 -146468 
1295 1 34.26 35.9828 -2.06714 0.269229 -810272 -556459 -358066 294028 2451.82 -97391.4 
4242 1 36.0619 36.0322 -0.407868 0.591216 -165984 -40402.2 -171620 287646 35503.1 -120719 
63 1 34.1583 32.4659 -2.03154 0.0896543 -629722 -889663 -562589 -171499 -71121.1 -200131 
126 1 34.1528 34.1704 -0.25031 0.224036 -525730 -550984 -265371 177743 -232572 -223254 
2778 1 35.928 34.1851 -2.09018 0.159341 -443819 -936095 -203668 116778 -156237 -189233 
1365 1 32.4383 35.8785 -0.198361 0.425871 -155191 -451098 -272832 23471.9 -192339 -203067 
68 1 21.4032 23.8509 1.77721 19.359 733359 767186 1.19621e+06 40573.7 268614 306068 
67 1 23.3108 22.231 2.22422 13.5167 895554 438819 1.64168e+06 -402886 -304950 -111649 
130 1 23.5447 24.1301 3.77964 5.46606 -1.39947e+06 -541031 -614237 -997179 544452 404217 
129 1 21.5538 22.9757 4.17776 30.3337 225941 858585 1.37215e+06 -416171 -6721.73 175799 
133 1 25.0374 22.0378 3.95434 18.1473 895292 561361 1.00285e+06 -173433 -389726 -118961 
72 1 25.1782 23.8231 1.90956 0.495393 -152086 -135472 239411 179056 469986 -226559 
71 1 26.7573 21.9511 1.95857 16.3495 419902 47345.6 1.18247e+06 -113931 -366462 -79306 
134 1 26.8713 23.7501 3.86072 0.419168 207903 -152332 148401 14313.4 52886.4 -1027.32 
137 1 28.674 21.905 3.71528 16.5018 834266 -82441.6 567002 -262755 -252714 352703 
76 1 28.5428 23.595 1.9951 1.12027 382078 -676371 260893 158784 130633 -98093.9 
75 1 30.4243 21.9142 1.77947 15.7041 448668 -169459 620582 -241723 -13208.3 297406 
138 1 30.4614 23.5672 3.78998 0.47679 -327745 -448464 307898 -417229 50850.1 39522.1 
80 1 32.1249 23.6388 1.88419 0.583581 -201883 -940531 334374 -866431 -193390 2709.69 
141 1 32.2226 21.7415 3.53767 17.1145 1.48213e+06 714995 1.29711e+06 143210 -368615 314869 
2796 1 35.7525 23.6022 1.72234 0.333269 98492.3 -388742 194651 35657.5 88193.8 3922.21 
79 1 34.0128 21.8356 1.69107 15.0685 458457 499970 275251 -235813 116539 -59186.5 
142 1 34.085 23.6375 3.60968 0.812389 613180 77436.8 594255 274944 -130086 223037 
2865 1 35.5901 21.6796 3.53995 18.1778 576051 498949 526364 285678 -250753 158145 
145 1 21.5212 25.6242 3.77469 14.7352 330943 881633 588075 -207647 82268.4 -254073 
84 1 21.3826 27.2171 1.8555 16.0628 663649 1.15576e+06 1.00914e+06 172710 116063 525519 
83 1 23.3217 25.5535 1.85598 0.340333 564340 300984 -5476.01 276728 27646 72131.5 
146 1 23.2874 27.3276 3.6984 4.77315 -347323 -432989 129401 119146 182955 -327794 
88 1 25.1898 27.3657 1.66509 0.891166 35659.3 -378154 163798 -187092 -1398.88 176989 
149 1 25.2862 25.6787 3.61653 5.03356 -825380 -15488 245512 -657872 204978 -62148 
87 1 27.0742 25.5841 1.94549 0.776623 -91919 -16342.5 115968 -32597.3 273178 -255744 
150 1 27.1151 27.3552 3.69368 4.05418 -370179 -273485 -192158 -126240 28533.8 -38400 
153 1 28.7993 25.4484 3.72403 0.540391 135657 439626 466389 54380.6 -308296 -64664.8 
92 1 28.7672 27.3803 1.81124 0.353767 -1.06231e+06 -744438 40231.2 -4861.22 -265862 -146434 
91 1 30.4331 25.5242 1.76826 0.376926 246415 537546 404005 324344 -31153.9 -486464 
154 1 30.4966 27.318 3.65416 0.259728 -463019 -602177 628041 -390125 -242825 -327835 
157 1 32.1962 25.333 3.70906 0.37716 356350 334643 415517 -216862 261610 -167837 
96 1 32.2662 27.2262 1.7445 0.288733 -585325 93973 568646 -442335 -185795 -204657 
2883 1 35.8085 25.4523 3.53775 0.558961 -994829 -828399 -78513.4 -2689.57 -314986 120127 
95 1 33.8553 25.2944 1.7187 0.752925 332296 143485 513573 -12073.4 -154919 192154 
158 1 34.0094 27.1294 3.54222 0.338141 22589.6 191461 427356 210752 -232885 351132 
2814 1 35.9088 27.132 1.71496 0.404231 310059 -111637 -45647.1 626776 55074.7 116102 
161 1 21.7469 29.0789 3.98894 14.4538 -415841 648880 1.29438e+06 379353 -45270.9 -410904 
99 1 23.3333 28.9891 1.88236 0.331076 -3464.46 15783.8 -217696 147737 -218477 34215.2 
100 1 21.4828 30.8617 2.05852 18.1335 661859 1.28069e+06 1.2904e+06 -366924 62194.4 -565129 
162 1 23.5789 30.6774 3.82382 0.208271 -617430 -787925 563328 -228429 422160 38999 
115 1 23.3784 32.4116 2.00035 0.543017 -564366 -359228 88334.8 197583 81357.9 -331295 
165 1 25.2328 28.9219 3.72976 3.78598 -240270 189332 420306 408923 267704 -99974.3 
104 1 25.209 30.6863 1.80962 0.225351 78297.4 143857 49919.9 299550 16563.3 -309330 
103 1 26.9944 28.982 1.72826 0.277353 -801373 -1.0002e+06 191381 72694.2 3492.13 -276724 
166 1 27.0083 30.6832 3.69578 4.09841 260201 428616 754372 461965 159785 -330811 
181 1 25.2569 32.3825 3.72337 0.373168 -27485.9 -125714 509136 145995 -11577.7 -267176 
108 1 28.7256 30.712 1.6806 0.367334 -381973 -267333 387042 58404.9 -193081 -46332.7 
169 1 28.8604 29.0579 3.71665 3.51929 -993960 -823941 285526 -102399 -103374 28798.3 
107 1 30.4897 29.0591 1.67812 0.412361 -398013 -757730 -73493.8 -186235 -109166 40852.7 
170 1 30.5672 30.6791 3.53761 3.79456 -585009 -676978 -479569 95214.3 -128571 -152941 
112 1 32.4034 30.6636 1.70797 0.219575 -476109 177414 260326 85866.5 -210095 -103421 
173 1 32.2178 28.8918 3.69336 0.576898 -501393 -631325 472469 -248557 306847 -192028 
123 1 30.5732 32.4054 1.64541 0.362488 217213 70711.2 214708 -149771 -24187.3 -14678.1 
2901 1 35.8858 28.8003 3.55327 0.482543 425761 -45778.5 176764 145798 -144228 117238 
111 1 34.0357 28.8173 1.714 0.362402 -181697 -282733 552196 -58721.4 -128196 229063 
2832 1 35.8601 30.7007 1.75905 0.469904 -221511 -108209 10202.2 394063 -119103 -242475 
174 1 34.1008 30.6315 3.55124 0.218923 -194508 357882 195180 112462 -191314 -93811.5 
1425 1 21.9257 35.9683 3.88746 16.703 40083.4 1.07723e+06 1.56466e+06 82562 101843 -188419 
177 1 21.8612 32.4952 4.02935 15.6093 96070.6 936577 799359 -69462.3 115023 -62573 
116 1 21.6992 34.1485 1.99627 14.7666 486239 1.2661e+06 1.1076e+06 534160 -72268.8 -376011 
178 1 23.5894 34.2277 3.73426 0.469089 -585627 -352328 699501 58161.3 186623 -378392 
1355 1 23.5669 36.093 1.94048 0.337534 -277436 379396 346259 262085 86870.8 17048.3 
119 1 27.0121 32.5914 1.84197 0.461585 340504 -217609 50471 267847 -69013.9 12508.2 
120 1 25.1812 34.2175 1.80772 0.32911 -149913 -226736 88487.1 389111 289627 -371964 
182 1 27.2255 34.2363 3.67213 0.385851 -58940.8 -353179 266241 12118.7 449779 -504820 
1429 1 25.3432 35.9792 3.72426 0.128698 -527455 -325616 -40816.6 20755.4 -70428.6 277127 
1359 1 26.9011 36.0813 1.78634 0.684529 -8868.05 33121.8 -14947.9 281683 563957 296572 
185 1 28.9152 32.5017 3.61318 3.6271 32409.5 114804 408074 616973 189291 -81720.4 
1363 1 30.6116 36.0046 1.71741 0.167913 -368100 -313695 236119 -165323 -123706 156888 
124 1 28.8458 34.3339 1.76354 0.346996 25143.1 -4066.25 21163.7 -482034 309029 138972 
186 1 30.7745 34.1812 3.62035 3.68496 197248 218584 811138 378270 397742 -154751 
1433 1 28.876 35.9525 3.66794 0.144719 21108.4 -208694 460469 -631314 183513 -313915 
128 1 32.3343 34.2069 1.6656 0.233706 -101902 -9183.48 -241595 279361 -17003.3 294847 
189 1 32.4288 32.4974 3.56851 3.93813 -354372 -528395 147428 507907 -128800 367067 
127 1 34.146 32.4742 1.66659 0.123345 -236592 -465387 -303593 297393 -341780 -384968 
2919 1 35.884 32.466 3.43106 0.185026 -286669 -409664 151409 423760 -329761 -533965 
190 1 34.1807 34.1854 3.44141 3.99463 -334189 -520493 414583 -269974 -378804 -239026 
2850 1 36.0186 34.2635 1.51254 0.373414 174538 643738 297453 48030.7 -124686 -76984.6 
1437 1 32.4402 36.0954 3.51389 4.14786 -164658 -296260 250107 -368016 20752.7 -72326.2 
1367 1 34.2139 36.0281 1.53448 0.300671 -262404 -200160 -143480 282088 -493412 -27369.7 
4323 1 35.838 35.9582 3.48848 4.60227 -275950 -502848 137715 665191 -428886 290733 
131 1 23.2584 22.1893 5.78249 26.6684 242414 257609 1.12407e+06 19965.6 -365877 -14684.6 
193 1 22.4976 23.1316 8.09945 22.7649 391783 783822 1.37854e+06 -123552 -35746.9 210782 
194 1 24.406 24.6538 8.05735 6.0021 230577 -623918 668989 -172377 -40399.2 -35098.4 
132 1 22.5707 24.5515 6.02387 9.92737 617322 524300 1.26567e+06 167075 531635 21415.2 
197 1 24.8438 22.3386 7.60878 13.9901 1.0399e+06 -449021 597105 -36962.3 -109013 118953 
136 1 25.065 23.9042 5.70599 6.02394 328682 75819.9 29115.7 -320249 -221738 147876 
135 1 26.9398 22.0064 5.67701 15.6523 1.16681e+06 -7285.53 1.03036e+06 -661487 -272143 9016.1 
198 1 26.965 23.7771 7.45069 6.03504 542781 134292 482108 91141.2 11990.7 -33533.6 
201 1 28.5433 21.9387 7.67169 16.3462 1.20715e+06 406252 1.73821e+06 300828 -147852 122519 
140 1 28.6785 23.6333 5.63326 0.26617 -396256 -94414.8 285437 -345182 50993 -153935 
139 1 30.3612 21.8332 5.54782 18.2431 1.53259e+06 259657 1.49395e+06 121393 -406495 333359 
202 1 30.4295 23.6899 7.45749 0.195141 674403 309013 577938 78304.4 -28713.4 128696 
144 1 32.1646 23.6364 5.61582 0.307036 152606 431199 388802 227957 -670827 154650 
205 1 32.2151 21.8008 7.55498 18.3814 1.07999e+06 660497 1.23506e+06 -220627 12370.6 -30972.5 
2868 1 35.6511 23.6387 5.59852 0.608856 -535909 -412561 603835 368091 179990 29503.6 
143 1 33.924 21.7233 5.38494 17.2003 1.60053e+06 890185 1.60144e+06 -62178.1 -4057.37 136068 
206 1 33.8673 23.6549 7.34216 0.597733 -263954 -226395 105551 425734 22249.9 409057 
2937 1 35.6385 21.8029 7.44254 17.6118 1.19428e+06 416370 898762 -23860.9 598429 -124832 
147 1 24.3817 26.3864 5.92554 5.0659 1.17617e+06 904356 1.81902e+06 39929.6 82790.7 -4100.9 
148 1 21.8394 26.9369 5.7302 15.4955 431778 488397 -118433 -121410 30680.3 -511895 
209 1 22.6514 26.4242 8.03226 9.09084 230909 876428 1.06346e+06 -105680 -138938 115124 
210 1 24.409 28.0991 7.98533 5.4114 426764 145566 904591 -492775 110635 305404 
151 1 26.9002 25.6141 5.57964 6.33506 347892 218808 543274 -638415 -244581 -41085.6 
152 1 26.2317 28.1275 5.99685 5.82184 581946 611923 1.18994e+06 -311441 60227.3 -168235 
213 1 26.2623 26.3448 7.98534 5.82214 821686 854553 921513 -179776 132266 60923.3 
214 1 28.0513 28.1863 8.01811 5.34925 -728636 324179 -157959 -188183 228279 -38885.1 
156 1 28.6107 27.3387 5.66205 5.48341 -109945 133411 174258 -382482 -491004 391790 
217 1 28.7697 25.5841 7.41815 6.15454 -122427 -73728.5 248506 -574102 -118050 418906 
155 1 30.526 25.4584 5.60649 0.199044 -110587 381739 235359 46.6542 123471 -31102 
218 1 30.3932 27.3021 7.48565 5.40008 -320215 -737067 -195572 -733661 5177.64 50787.7 
221 1 32.2923 25.4651 7.44614 0.22387 -597541 -346515 -307440 22446.3 -256625 222834 
160 1 32.2953 27.197 5.63992 0.302269 204773 -305646 366030 206311 -243096 39054.4 
159 1 34.0526 25.4622 5.56345 0.265014 144536 -119777 631265 511660 -11935.1 192732 
2955 1 35.8052 25.4338 7.45615 0.462892 20125.7 -344616 140801 330026 -239938 -302404 
2886 1 35.8584 27.2005 5.41551 0.27205 381326 -15600.6 587190 160205 -95945.1 203356 
222 1 34.014 27.205 7.4878 0.288268 -131339 -447616 -60743.4 -95113.1 -433892 82961.8 
225 1 21.8899 28.7968 7.37968 13.9257 337212 594649 971962 -231910 535934 333297 
163 1 23.6016 28.7954 5.63357 5.64651 -121809 274927 -479830 121206 250785 -366782 
164 1 21.9114 30.6763 5.82726 16.3464 -139735 98507.5 433686 -361467 -159931 144385 
226 1 23.7024 30.5352 7.58746 6.03485 2851.39 185366 -44010.4 -96779.3 -39672 -27071.9 
241 1 21.8358 32.356 7.8614 15.918 801544 1.20347e+06 1.34559e+06 -20648.8 -225434 -12066.2 
179 1 23.7013 32.2772 5.83025 0.717838 -425287 -7393.93 415372 -151662 -419788 -167793 
167 1 28.0105 29.8234 6.037 6.51662 753603 377604 964823 -433365 14961.1 -150044 
168 1 25.4971 30.6213 5.72331 4.89133 434306 364981 115800 326579 271416 4059.16 
229 1 26.1647 29.8458 7.95192 4.9181 291480 281415 220928 -132123 -202347 413118 
230 1 27.9636 31.6225 7.85821 4.65683 1.03793e+06 320498 543556 -73042.4 -117443 267401 
245 1 25.4966 32.4123 7.54276 5.48677 -775140 -295003 19350.2 -236572 -68732 -215062 
183 1 27.3073 32.381 5.57673 5.51637 512536 233974 229937 -266556 167418 -275725 
171 1 30.5457 29.013 5.53874 5.12623 -349475 58682.1 -704060 -235388 -239385 -46783.5 
172 1 29.8575 31.5753 5.80925 5.07421 421099 871247 1.38312e+06 -206633 -7877.94 -39116.2 
234 1 31.5103 31.543 7.92996 5.79415 -218740 77953.6 708980 -296445 331660 -22158.4 
233 1 29.8791 29.7776 7.84531 5.18555 -473836 -95597.4 622234 -663037 168639 -72286.9 
237 1 32.2014 28.9896 7.39348 5.68012 -638100 -1681.42 200060 -316582 -331278 -164956 
176 1 32.2103 30.8012 5.41077 5.95165 -341523 -21728.1 415650 -438499 -417341 50851.7 
175 1 34.1497 29.0235 5.59865 0.905393 236865 129941 795529 -354642 -31871.3 -78891.1 
2973 1 35.8901 29.0191 7.41551 0.391008 149279 407871 18591.6 -249876 -21894.4 -46048.7 
238 1 33.8743 30.7837 7.31098 5.30359 510265 -38555.8 106175 -347075 -46622.6 -100316 
2904 1 35.8632 30.6677 5.4571 0.181815 -546824 -374320 794238 92345.5 -87392 25933.6 
180 1 21.9269 34.1557 5.92082 16.1562 332026 1.33321e+06 1.41081e+06 -239792 -332912 -335527 
242 1 23.754 34.084 7.60032 0.30292 -54947.3 418497 262463 395307 -121077 -10083.5 
1497 1 21.8842 35.9564 7.75668 17.8187 893181 1.31549e+06 1.18962e+06 -15600.1 -154704 168414 
1427 1 23.72 35.8378 5.74241 0.431487 415405 623214 954265 -84548.2 -10197.7 213314 
184 1 25.51 34.1369 5.59722 0.230339 142211 81618.9 718970 47904.1 4126.17 44150.6 
246 1 27.2438 34.0132 7.48475 5.20408 78490.7 -185805 572958 -277837 -44332 -267470 
1431 1 27.1487 35.9334 5.57078 0.447138 68626.2 -121076 195696 -334764 303970 -165814 
1501 1 25.6149 35.9129 7.59636 0.251065 338435 374864 642057 -175634 141903 -119813 
188 1 29.0575 34.1302 5.60883 4.75309 747503 173461 462408 -605809 36066.2 -438339 
1505 1 29.1742 35.8044 7.44553 6.17874 62707 -142160 283252 -101387 340493 -11118.3 
1435 1 30.7561 35.9576 5.48866 5.31347 59980.2 179509 174016 134917 361405 -270779 
187 1 31.6134 33.2541 5.93448 6.94289 798832 725557 1.34922e+06 -807998 50011.7 -62183.2 
249 1 29.8307 33.3811 7.91463 5.36791 513936 425594 704776 84424.2 -85473.4 518266 
250 1 31.654 35.134 7.81399 5.10974 -7308.23 -422987 925788 -253986 -222283 431861 
2991 1 35.8148 32.5097 7.24088 5.82883 508375 303031 49375.9 11861.2 -387117 26941 
191 1 34.1121 32.4561 5.38623 5.79235 138203 591497 430037 -171133 -574318 268785 
192 1 33.3217 35.0539 5.78463 5.68531 1.36322e+06 1.43894e+06 1.82586e+06 -520564 59001 9500.76 
253 1 33.3986 33.2747 7.89022 6.37288 303105 58757.6 285607 -117567 218429 -118150 
2922 1 35.8964 34.2669 5.29255 5.73229 131270 41364.7 -749532 -44139.6 -591887 28948.5 
254 1 35.2449 34.9945 7.62409 5.767 133276 365104 88077.5 200776 373319 434589 
195 1 24.2881 23.067 9.94711 10.5199 387523 59596.2 505053 -171490 287364 155470 
257 1 22.9142 23.1817 12.0335 24.2234 -147408 451056 682488 -369287 -300278 -213849 
258 1 24.6433 24.7809 11.8343 0.565632 -923467 -1.05741e+06 55253.5 -666666 64179.3 -93514.5 
196 1 22.5607 24.8216 10.0209 18.7379 710859 493294 958731 137556 90404.7 -441230 
199 1 26.758 22.1726 9.47279 14.9451 1.01848e+06 340369 793022 -86474.9 64922.6 -13928.2 
200 1 26.2198 24.5766 9.83003 5.07854 -104824 -110311 839980 -196913 214325 69308.3 
262 1 28.0713 24.506 11.867 5.93381 -20843.1 -1.06498e+06 465586 -119162 684439 -641325 
261 1 26.2591 22.8218 11.8437 9.59985 526586 110958 674301 -78239 353790 -368302 
265 1 28.5821 22.2834 11.1633 12.8762 257925 -943495 922154 -207650 122493 208432 
204 1 28.6547 23.9409 9.41232 6.25243 529306 -368967 371868 -333545 18075.1 526874 
203 1 30.5654 21.9449 9.35728 16.1855 1.37294e+06 593891 1.29206e+06 -488399 323404 37423.3 
266 1 30.5115 23.7523 11.2353 6.4279 196581 148579 756139 -688441 -18446 297085 
208 1 32.2404 23.7226 9.3625 0.184215 -133990 -365994 643662 -246945 78586.3 108958 
269 1 32.397 21.9583 11.3103 15.6913 842658 362830 1.10389e+06 -352829 -282436 -9175.54 
2940 1 35.7608 23.619 9.21868 0.307206 151250 98703.7 209688 -527797 723858 84713.4 
207 1 34.019 21.9448 9.21984 15.9413 370316 11861.7 539743 -258385 175352 23480.7 
3009 1 35.7175 21.971 11.2803 14.7601 368541 -41263.7 778367 312872 -234994 -87238 
270 1 34.0781 23.7109 11.1509 0.318613 -263853 -349201 603715 -212156 17698.9 77953.6 
211 1 24.5582 26.4597 9.90407 0.176589 233112 215973 100488 232341 224076 -58414.5 
212 1 22.703 28.1634 9.89991 9.85897 25879.3 129424 1.15683e+06 -123537 213368 -224926 
274 1 24.6937 28.1405 11.7266 0.406009 295722 -529736 -310553 197842 -20172.2 129889 
273 1 22.7794 26.4337 11.7761 15.6353 307641 875839 434284 75501.3 5787.05 -182848 
215 1 28.0445 26.284 9.84637 5.30678 218928 -212604 768267 -96832.4 102537 -154166 
216 1 26.4069 28.209 9.82458 0.488644 -125587 178785 17087.9 -72666.9 455925 115787 
277 1 26.4385 26.3761 11.7914 0.275633 -609658 -363647 458353 -211913 205444 131026 
278 1 28.139 28.1695 11.7178 0.117148 62891.7 103860 948137 46274.3 -12169.2 -178932 
219 1 30.5003 25.5417 9.25447 6.43215 -175914 53856.9 524545 -358659 -297515 248400 
220 1 29.8079 28.0381 9.74455 5.12987 -265700 371781 15667.4 -350774 -147772 -136695 
281 1 29.7542 26.2812 11.8515 6.55899 289767 630032 1.02679e+06 -148468 71058.6 -162575 
282 1 31.6067 28.1397 11.6154 5.07564 450859 -198445 -182087 98249.3 127410 21073.3 
285 1 32.1827 25.5948 11.1923 6.3621 451256 489548 197579 -481549 67601.4 146605 
224 1 32.2304 27.3509 9.3572 5.38438 -160473 -246089 19097.4 66889 169461 118358 
3027 1 35.9007 25.3771 11.2183 0.409502 206506 263333 739237 -298672 -203776 -8899.03 
2958 1 35.8655 27.1457 9.21641 0.178409 313505 313178 -90775.8 -82558.9 -26186.8 -545787 
223 1 33.9355 25.5128 9.25403 0.451014 -37747 -256644 -277108 -340222 -220320 92749.6 
286 1 34.1303 27.1599 11.063 5.9568 110038 258728 201701 -549546 -39710.4 -317755 
227 1 24.4553 29.8209 9.98844 5.26863 -450074 -465538 92745.5 -193438 67241.3 306429 
228 1 22.0745 30.5179 9.52824 14.7823 -30192.9 253424 647076 -61606.7 106954 590011 
289 1 22.7776 29.8746 11.8241 9.82463 -123389 739291 137873 -114945 -60219.7 -83159.9 
290 1 24.5543 31.6166 11.7556 5.20727 -195487 -187215 -38589.1 32770.7 -171810 247500 
243 1 23.8574 32.2282 9.42972 5.82123 -305174 225231 86566.8 -413801 20299.8 136420 
305 1 22.1556 32.3101 11.3445 13.9751 312094 1.03928e+06 1.26123e+06 -160911 146482 -22833.2 
231 1 28.1261 30.0065 9.79255 0.4678 -97938 -603224 49382 -235283 170314 -439419 
232 1 26.2899 31.6155 9.89152 5.2799 -113112 107288 382504 339253 42409.1 280743 
293 1 26.445 29.9771 11.7413 0.38749 -399419 -730152 -234072 8072.2 165605 -59060.4 
294 1 28.2484 31.608 11.6358 0.561857 -409185 -818908 -60507.9 -333275 279979 -66388.4 
235 1 31.5941 29.7576 9.81232 5.41859 104624 -481816 -200035 -181869 87413.3 341822 
236 1 29.9048 31.6782 9.79317 0.272564 -1.07558e+06 -354743 -542718 -99962.2 353741 150825 
297 1 29.9507 29.9082 11.7207 0.183235 -980765 -750806 629746 98736.6 358167 115059 
298 1 31.5819 31.6189 11.5705 0.679003 -8108.22 108268 575250 -420409 -206009 -242593 
3045 1 35.8209 28.925 11.0069 5.72958 364026 634532 528916 -222529 -260701 -359634 
239 1 34.0667 29.0637 9.14361 6.39265 241620 346145 245688 -314425 -68931.3 -127669 
2976 1 35.8626 30.8602 9.1399 6.13742 43235.8 -83660.9 -191441 -433366 141354 -231362 
240 1 33.4452 31.582 9.69392 5.72507 500462 287941 -13899.8 154948 -241567 36623.5 
302 1 35.2684 31.5284 11.4217 5.85606 -423931 304591 -27712.1 -220763 309873 -200729 
301 1 33.4394 29.7909 11.584 5.5462 320796 407707 393516 -455732 -86491.2 -130910 
1499 1 23.8202 35.9153 9.52619 0.0937872 -777099 -266257 634460 -357569 77497.9 -42629.6 
244 1 22.1009 34.2437 9.47864 15.025 254227 510013 778818 -524429 224887 -89516.2 
306 1 23.9182 34.086 11.4265 5.48626 -529269 90130.9 -29099 -418858 147405 175212 
1569 1 22.0974 35.9247 11.3631 16.8821 498431 857328 692150 14646.1 203956 -235057 
1573 1 25.6068 35.8025 11.3733 5.05954 -414808 -514146 372576 -96740 -73284.4 -26806.7 
247 1 28.1427 33.3685 9.82885 5.48973 123525 194547 315291 223518 -154777 182646 
248 1 25.5653 34.0693 9.48248 5.46811 698394 369585 -116738 2177.11 89097.2 -224170 
1503 1 27.499 35.8227 9.39458 6.16656 282521 168113 930.704 16819.5 -193305 117219 
309 1 26.354 33.4255 11.7667 5.52282 -91277.4 -202535 155987 -393566 -252958 159651 
310 1 27.9959 35.1792 11.7298 5.93892 20010 -31333.5 423759 -153319 5123.58 421882 
251 1 31.6861 33.4252 9.67899 0.215782 -219889 -163372 -51689.3 -232500 68315.9 -87865.9 
252 1 29.93 35.2634 9.89017 5.99356 70350.8 84547.5 497824 71500.3 -584999 133116 
314 1 31.7446 35.1478 11.5377 0.257938 -28656.7 124266 259958 63207.4 -363788 104803 
313 1 29.8638 33.4446 11.6451 0.460794 -84345.8 -7686.83 392947 -226873 -52493.4 -182161 
317 1 33.5368 33.3571 11.4725 0.171159 663707 462153 740958 252961 -271437 -273630 
318 1 35.4073 35.1326 11.5685 0.491334 343638 42209.9 513667 389617 -235918 313772 
255 1 35.3686 33.3476 9.58464 5.49323 -725893 -9060.26 42659.6 136032 -195074 116674 
256 1 33.5298 35.0923 9.54942 0.403324 309547 -500512 -80128.4 -154043 -11386.9 2540.94 
321 1 23.0177 22.945 15.5392 30.1655 331824 673255 1.30936e+06 -369928 306164 -28624.4 
322 1 24.6533 24.6538 15.6148 0.214319 -768575 -820930 218066 -793697 -61980 -342979 
259 1 24.5762 23.0098 13.7035 15.919 -628246 -47888.2 -85893 -536367 -7156.75 -53634 
260 1 22.8802 24.9285 13.7892 13.8294 25589.5 354270 669183 -500931 43152.9 -303555 
326 1 28.1919 24.4555 15.6351 0.222812 569256 250411 542428 -278561 226838 127501 
325 1 26.2946 22.7604 15.6537 16.3934 1.21463e+06 552873 1.24027e+06 38971.2 247532 -148762 
263 1 28.0543 22.6257 13.7179 11.2197 1.42728e+06 834666 1.5144e+06 -54659.2 -48500.8 49600.4 
264 1 26.3467 24.58 13.6377 0.186753 -699057 -779862 11202 -983792 217780 -373875 
330 1 31.6829 24.3992 15.6335 6.13646 -662418 468258 533650 1094.53 -5456.85 -463583 
267 1 30.5123 22.1121 13.0851 12.9404 1.38621e+06 -62129.7 1.18294e+06 -176752 271870 189664 
268 1 29.9315 24.4072 13.7765 6.26972 590021 323376 907145 40404.3 188980 -186727 
329 1 29.9119 22.5979 15.6168 11.2485 1.16854e+06 367675 1.26831e+06 -55848 -91084.3 28334.4 
272 1 32.3348 23.8376 13.0918 5.62353 -301289 -547049 669484 -313800 -229468 50747.2 
333 1 32.341 22.0048 14.9631 12.6606 724578 200932 1.11873e+06 -424378 316556 132979 
3081 1 35.7843 21.9715 14.9314 15.705 852339 -67248.4 860569 -373851 -12462.2 55572.4 
3012 1 35.8092 23.6867 13.1126 0.247486 -105430 -439711 91638.6 -118141 -580828 228772 
271 1 33.9891 21.9947 13.1278 16.0577 164296 144273 182317 -27581.7 -92416.6 4339.18 
334 1 33.9722 23.8028 14.9876 6.44024 -400631 -185435 253738 -69641.4 -65463.4 -319678 
276 1 22.8324 28.1502 13.7586 17.4649 184789 1.2959e+06 1.42936e+06 48720.4 -179765 125262 
275 1 24.6493 26.5084 13.6149 0.497353 -1.01672e+06 -580989 -8982.73 -389950 -230563 -206473 
338 1 24.6372 28.1595 15.5839 0.188256 -231452 453456 737597 -136402 -45220.2 -143060 
337 1 22.8571 26.4743 15.7213 17.408 444252 731165 839955 -275021 -127280 -32708.6 
279 1 28.0943 26.2443 13.7229 0.280603 -230052 424860 30626.8 -398160 436115 -322147 
280 1 26.4112 28.2133 13.6827 0.261853 -180758 -307064 302134 -275898 6180.34 -11085.7 
342 1 28.2193 28.1067 15.5708 0.12988 320439 368286 748692 -95440.9 112018 -190152 
341 1 26.3268 26.3643 15.4306 0.80891 -150044 -46984.5 168980 -285604 302137 -49709.5 