ITEM: TIMESTEP
12800000
ITEM: NUMBER OF ATOMS
5780
ITEM: BOX BOUNDS pp pp pp
2.8473181969482240e+00 6.9452681803067307e+01
2.8473181969482240e+00 6.9452681803067307e+01
-4.1941411724586679e+00 7.6494141172474201e+01
ITEM: ATOMS id type x y z c_csym c_2[1] c_2[2] c_2[3] c_2[4] c_2[5] c_2[6] 
4 1 21.6858 24.1891 -2.12632 15.7558 -617271 -266887 -11540.8 -26858.8 -355339 -95346.2 
3 1 23.2661 22.3471 -2.3036 16.8391 450950 -417680 850230 -29296.9 110643 132416 
66 1 23.4539 24.1032 -0.523298 0.883054 -1.07296e+06 -1.14745e+06 -231064 -42401.2 -599283 60106.5 
65 1 21.6857 22.4414 -0.262393 48.9802 739960 1.01961e+06 1.34674e+06 -133005 -219290 255471 
69 1 25.0343 22.2103 -0.436748 16.761 1.41073e+06 254063 1.5296e+06 202454 -274728 147555 
1 1 21.3902 22.5673 -4.09781 33.9689 1.21993e+06 953018 1.65532e+06 173506 -108805 197942 
2 1 23.3971 24.0759 -4.01831 0.453183 -996919 -953378 198868 -80870.2 -297524 392211 
8 1 25.1723 23.9119 -2.34882 0.362744 -9660.24 -312139 -569208 -558355 -20852.5 86492.2 
7 1 26.9879 22.0486 -2.36665 17.6181 1.37075e+06 515281 1.64706e+06 -440355 67841.1 -90382.8 
70 1 27.0242 23.8177 -0.443006 0.508387 274744 -284672 147725 -375312 55039.2 153454 
12 1 28.6653 23.7944 -2.50341 0.250259 378856 -25282.4 649163 -395398 -8374.98 -560947 
73 1 28.8081 21.9597 -0.52666 17.2316 1.38372e+06 428901 1.62168e+06 -361326 -287896 -156905 
11 1 30.5389 22.0298 -2.62551 15.4944 957574 438464 1.27209e+06 -304591 63743.1 24187.4 
74 1 30.4442 23.7596 -0.602387 0.252537 -123267 -99903.8 899655 -11804.2 322740 -58202.5 
16 1 32.2932 23.7216 -2.4642 0.233411 265789 42503.9 482938 -540143 96686.9 -331944 
77 1 32.138 21.9211 -0.583998 15.7576 1.56155e+06 769971 1.39902e+06 214009 282503 109688 
15 1 34.0935 21.8516 -2.43686 16.9283 1.49501e+06 685037 1.47426e+06 -140490 -165485 134515 
2793 1 35.8867 21.9986 -0.671325 16.5898 1.00813e+06 401359 1.2078e+06 28714.6 -152140 281832 
78 1 34.0703 23.7321 -0.586237 0.0731594 644702 201219 764432 211118 -85506.6 246861 
2724 1 35.8867 23.6927 -2.52225 0.184252 433866 -196845 613694 8948.36 155276 482432 
81 1 21.6871 25.847 -0.348423 14.6141 -112953 562371 104344 91422.5 -142716 -609574 
20 1 21.6417 27.71 -2.14878 15.8328 102269 710991 927354 -63951.4 -297880 105700 
19 1 23.3751 25.9298 -2.23455 0.418094 -745956 -80266.7 -223883 -429353 -121788 142610 
82 1 23.3986 27.7339 -0.353231 0.725881 76501.6 429501 557318 -268862 -184443 -16175.8 
17 1 21.6544 25.8609 -3.98336 15.5464 177985 1.41623e+06 854835 163100 -372080 207880 
18 1 23.4984 27.6296 -4.18356 0.457835 -543482 -330860 131001 328540 -257828 -137643 
24 1 25.2294 27.6307 -2.42495 0.602874 -469460 -26469.2 72900.6 -301232 252927 17629.8 
85 1 25.2514 25.7711 -0.505631 0.175497 328035 522147 268634 -426021 222843 11171.7 
23 1 26.9438 25.7158 -2.35185 0.224954 -191796 480086 -65857.4 -85225.5 -322287 54459.9 
86 1 27.2006 27.4927 -0.456012 0.559755 253435 95757.8 280552 -226616 178752 -2849.56 
21 1 25.1383 25.6809 -4.08399 0.740411 -833751 -895975 331095 -322260 -218825 72766 
28 1 28.8435 27.4326 -2.45213 0.257457 139628 -158424 352270 334139 354608 -15720.6 
89 1 28.7596 25.5289 -0.68007 0.78597 -321038 -54928 136674 263740 224555 40726.4 
27 1 30.4922 25.6037 -2.53618 0.216421 -106758 -67192.5 113653 -56015.5 497892 -209228 
90 1 30.662 27.424 -0.524099 0.329469 -87490.4 106209 93001.9 92204.4 192165 110372 
93 1 32.2564 25.5091 -0.579091 0.202175 106646 190269 464994 115207 291217 51844.5 
32 1 32.2413 27.332 -2.46983 0.147388 -311298 4989.56 224808 -359215 41674.2 -343441 
2811 1 35.8429 25.527 -0.646923 0.168928 -145003 -381143 -214973 -317433 -216546 18869.8 
31 1 34.0564 25.5086 -2.40629 0.297866 137460 260983 222436 -217747 19914.6 -203747 
94 1 34.0647 27.3047 -0.723987 0.447148 250539 -276454 54779.3 151850 -78744.3 218035 
2742 1 35.961 27.1641 -2.53061 0.41263 -327902 -738764 -227964 -288920 290190 -21537.8 
36 1 21.6069 31.1919 -2.22963 16.8242 456607 991540 1.06367e+06 -205158 -32133 -286461 
97 1 21.6007 29.4554 -0.325115 16.9484 116570 919179 1.34822e+06 -129259 -36337.7 -154062 
35 1 23.4221 29.383 -2.337 0.252548 -452511 -128234 283659 -511943 -187172 -121155 
98 1 23.4492 31.0104 -0.372808 0.149883 -792948 -82868.9 691109 -477258 50843.8 -285903 
33 1 21.7164 29.2136 -4.17366 14.2307 -478112 413077 372571 205636 63155.3 301606 
40 1 25.2462 30.9849 -2.23207 0.453594 -105999 -495478 -257754 -470967 68406.4 -235576 
101 1 25.2898 29.344 -0.40041 0.224741 13777.5 -282252 387687 -498770 -239299 220506 
39 1 27.0827 29.1973 -2.40377 0.494805 -468271 6954.88 -147547 -219037 168822 -133277 
102 1 27.0739 30.967 -0.44619 0.13308 -1.11894e+06 -1.0433e+06 -51979.4 -188021 -379491 283597 
38 1 26.9706 31.1525 -4.18026 0.539843 -643967 -1.07768e+06 -146584 -28689.6 112447 -575019 
105 1 28.9011 29.2601 -0.597555 0.195092 -538645 -483965 200950 -462963 95217 -90357.6 
44 1 28.8594 31.0464 -2.40679 0.226476 -140132 -393131 106093 -127174 -13467.7 47235.7 
43 1 30.6148 29.2625 -2.47302 0.1989 22832.4 226263 404530 76274.9 32881.6 116633 
106 1 30.6472 30.9385 -0.485406 0.349645 -601620 -822030 -240117 -474701 -1463.75 1954.25 
109 1 32.3589 29.1635 -0.61807 0.130003 -840839 -380404 95174.4 -204607 172987 -174821 
48 1 32.4088 31.0176 -2.54746 0.54397 -69944.1 -240250 282215 -456494 -87351.6 -68161.3 
2829 1 35.9944 28.9832 -0.640338 0.261097 -269125 -70926.5 277803 -66203.1 310852 203730 
47 1 34.0896 28.984 -2.44918 0.430679 464831 14745.2 268518 -558619 208872 343331 
110 1 34.1912 30.8064 -0.630135 0.177482 -39993 -462170 -38000.3 -98327.3 228332 -8833.27 
2760 1 35.8323 30.7493 -2.56371 0.286397 -467700 50142.6 207746 -232924 -240110 -16031.6 
113 1 21.6541 32.7887 -0.461848 16.1392 816632 1.03258e+06 1.0638e+06 123658 3317.02 -661432 
51 1 23.4753 32.788 -2.43954 0.660409 -1246.54 36341.7 521128 -501296 261735 14344.5 
52 1 21.7108 34.7201 -2.23345 15.2389 115662 1.27028e+06 1.30299e+06 -400460 147276 -156482 
114 1 23.6104 34.4867 -0.469059 0.298564 -49195 545591 43097.3 82786.8 383693 90132.9 
50 1 23.3556 34.5331 -4.17598 0.255771 -5276.89 82437.5 294690 23305.1 301856 50293 
56 1 25.1906 34.5201 -2.29667 0.179204 -1.10805e+06 -198734 -95224.6 -203300 397496 -205825 
117 1 25.283 32.5873 -0.390631 0.793252 -230949 -622959 54102.6 98187.1 274865 -301884 
55 1 26.9741 32.7587 -2.37287 0.170144 -418441 -808471 -287572 -374993 35615.5 -434097 
118 1 26.9751 34.5175 -0.525502 0.33953 -113312 43405.5 -33510.3 565014 244892 -68092.1 
121 1 28.7391 32.7513 -0.50249 0.505346 61336.8 -670454 -654435 -65883.1 90584.4 154130 
54 1 26.8598 34.5418 -4.15804 0.552568 -258821 -660564 -165336 -69697.2 -132988 61075.1 
60 1 28.7659 34.3758 -2.35181 0.530294 -28852.7 -183590 261330 -127777 -48929.3 99637.5 
59 1 30.6206 32.7237 -2.38363 0.197418 -301845 -204430 745143 57701.9 -121446 -151055 
122 1 30.7199 34.5249 -0.622854 0.2891 -43778.4 -105836 -571002 -78953.6 -184078 -81523.7 
1291 1 30.6911 36.1378 -2.5371 0.271549 485024 357603 804082 243700 43976.1 69821.6 
64 1 32.4765 34.4359 -2.52635 0.0966493 -512224 -68205.3 466861 130579 5059.23 -11437.2 
125 1 32.4673 32.5734 -0.568257 0.357292 -359500 -460373 -214428 -172625 84639.8 -406355 
2778 1 36.0701 34.3113 -2.60732 0.294553 -62615.7 210538 194974 -114624 -19855.4 -45561 
63 1 34.1866 32.6391 -2.53299 0.161448 -252554 -652178 204176 -212546 -113403 157653 
126 1 34.245 34.3655 -0.696363 0.1461 -526441 -256673 -17159.7 164103 115154 -250366 
4242 1 36.1029 36.0643 -0.760876 0.143417 81233.9 117972 113138 -116274 -131632 -88298.4 
1295 1 34.2765 36.1194 -2.60313 0.219415 -347031 -9337.82 358526 -161375 140663 80162.1 
2847 1 35.9846 32.5858 -0.641142 0.302019 -424999 -398306 341966 2983.47 279490 -138659 
68 1 21.3965 24.3173 1.68689 22.9661 1.10649e+06 964264 671044 -101257 -181828 209605 
67 1 23.3388 22.6306 1.55804 14.5372 324845 629288 961907 -545593 -608758 219389 
130 1 23.6517 24.4749 3.2843 5.75114 -1.32415e+06 -473230 -773195 124975 170682 690528 
133 1 25.0738 22.488 3.24653 17.338 287798 -62397.7 561951 60329.8 -413074 196717 
72 1 25.2751 24.0825 1.33731 0.279254 -757215 -777870 -416466 -347175 203109 255530 
71 1 26.9222 22.1731 1.39237 18.7261 1.45747e+06 213371 1.33995e+06 -146487 32450.3 204781 
134 1 27.1029 23.9959 3.14158 0.51246 -371718 -1.35074e+06 127134 268932 146902 599087 
137 1 28.8493 21.9937 3.27556 16.5057 1.75738e+06 1.12738e+06 1.85288e+06 -149490 -128898 60248.9 
76 1 28.8684 23.7705 1.28408 0.353943 14966.8 60129.4 308863 -177183 268902 -180871 
75 1 30.5949 21.8104 1.30666 20.1851 1.26461e+06 1.11585e+06 1.27072e+06 -39029.7 176518 70671.6 
138 1 30.6437 23.8682 3.24215 0.29778 493021 -32326.7 1.05453e+06 113008 5503.77 108738 
141 1 32.2858 21.9908 3.22355 17.5253 1.11126e+06 318631 1.58744e+06 -105319 -284825 155513 
80 1 32.2809 23.7855 1.31925 0.128691 470818 312349 521832 115073 29228.4 136891 
2865 1 35.7782 21.9576 3.18233 17.7799 788049 387560 922843 -20304.2 -154258 -150621 
2796 1 35.8844 23.8777 1.28915 0.578601 247785 -275127 368848 24537.5 -160960 -334591 
79 1 34.1185 22.0168 1.30142 16.6747 1.63433e+06 533256 1.37396e+06 108198 -175062 101846 
142 1 33.9948 23.7333 3.209 0.425116 62412.4 -531837 333929 -2470.97 -238082 38105.3 
145 1 21.7111 26.0011 3.41331 14.4644 -239204 -806790 132911 -357902 48491.6 -89298.9 
84 1 21.6175 27.5217 1.47947 14.1349 323512 1.13885e+06 879678 150533 160659 23254 
83 1 23.4586 25.8242 1.34572 0.9089 -56292.8 -140301 -1.04249e+06 349550 -365827 145482 
146 1 23.6532 27.3838 3.2039 5.12463 -381539 163123 -78185.8 -753172 223597 -70772.8 
88 1 25.4397 27.4697 1.37314 0.526867 387521 160909 -464340 -208318 84579.2 280995 
149 1 25.6859 25.8069 3.11346 6.41899 -1.58469e+06 -2.01479e+06 -1.23727e+06 -138993 151884 589287 
87 1 27.2157 25.6225 1.28557 0.422801 -836422 -535652 -1.08246e+06 -83812.4 605707 195229 
150 1 27.2287 27.5604 3.15937 3.98657 -875354 -799620 31306 -1.01811e+06 -159086 539346 
153 1 28.9076 25.6393 3.13034 0.429772 -387317 -90159.7 304669 -281180 32631.7 181794 
92 1 28.9602 27.4102 1.32949 0.253097 -654046 -347253 -241481 184182 -58836.3 83475.3 
91 1 30.5532 25.6146 1.32638 0.162755 -330332 -308396 161112 366407 520969 128279 
154 1 30.6143 27.4365 3.212 0.134429 -303748 -216105 221576 -50935.3 -235581 46020.5 
157 1 32.356 25.6114 3.17944 0.0804477 -356338 -30703 408294 -222442 55462.7 127322 
96 1 32.3932 27.3815 1.27621 0.0579685 -15413.7 18877.8 96970.7 251183 -393812 -84435.9 
2814 1 35.975 27.189 1.14392 0.589335 88722.9 -127509 10295.7 153779 193766 59943.2 
2883 1 35.8194 25.5106 3.0472 0.345853 119198 -86353.6 -255414 127835 -169885 -238721 
95 1 34.0646 25.5547 1.30146 0.179496 -547906 -9474.5 322355 200553 -174194 -207085 
158 1 34.1517 27.3365 3.11185 0.0830018 -223821 -359505 534740 -37507.8 -441378 27285.6 
161 1 21.8194 29.3043 3.50062 16.6836 528847 1.37181e+06 844492 -209886 286966 -129434 
99 1 23.4273 29.3193 1.61137 0.743492 -91901.8 121796 37241.2 -179314 -36746.3 -123639 
100 1 21.7399 31.1364 1.64663 15.3751 88442.4 976895 1.43312e+06 -140210 24058.2 -138254 
162 1 23.6242 31.0644 3.40887 0.178812 -674688 -387443 -15402.6 -265924 357567 -322041 
165 1 25.307 29.1855 3.26529 3.13186 -243355 -179846 -31385.1 -121539 -42524.7 -90550.1 
104 1 25.2827 30.9814 1.50596 0.219095 -76286.4 -527577 -653199 -58743.9 1722.9 -23432.6 
103 1 27.193 29.3012 1.32587 0.30421 -315430 -796221 -695072 -426901 -367750 283616 
166 1 27.1121 30.899 3.28924 3.96697 -95214.2 -16044.7 -173370 415591 139429 -369744 
108 1 28.8977 31.0064 1.28363 0.16925 -1.08064e+06 -955886 -482393 -38755.1 -141912 159725 
169 1 28.9285 29.2359 3.10779 4.17244 -643304 -364390 11829.2 34833.5 -267804 139620 
107 1 30.6923 29.2398 1.29776 0.158084 -803776 -812507 -447190 -367631 25957.5 132982 
170 1 30.7249 31.0971 3.07086 3.64767 -594300 -206981 -531009 268827 125708 88350.8 
112 1 32.4317 30.8642 1.31312 0.30997 -1.13594e+06 -890516 -412472 -198639 186554 233254 
173 1 32.4275 29.1325 3.09237 0.35372 -199146 -14088.4 -39545.8 44165.8 12174.9 164026 
2832 1 36.0792 30.8217 1.2885 0.230187 -393969 -470690 497459 181671 225346 95283.5 
2901 1 35.9381 29.0662 3.12908 0.15576 68835.8 9349.37 573577 383892 -46069 366390 
111 1 34.1996 29.1976 1.23698 0.392598 -21037.4 31364 186306 -5183.81 31066.1 331903 
174 1 34.309 30.9044 3.13029 0.203919 25722 -76372.5 -209764 81136.3 -82828.3 158326 
177 1 21.807 32.7646 3.60496 15.7085 394290 1.04703e+06 1.32553e+06 50302 -109697 164452 
115 1 23.5374 32.7853 1.47708 0.18887 -239839 -247782 597661 96627.4 139507 -160306 
116 1 21.8199 34.5141 1.4146 15.2341 288577 1.31756e+06 1.6794e+06 201881 68345 -217021 
178 1 23.6217 34.4625 3.34807 0.359623 64367 -101380 836735 116046 279344 -226930 
1425 1 21.8279 36.1028 3.50722 17.3062 681710 1.39705e+06 1.64429e+06 375413 -48613.2 -154805 
119 1 27.1717 32.6959 1.43163 0.225926 -388589 -95738.4 -95812.8 353702 230667 -282548 
181 1 25.4303 32.6832 3.32463 0.14332 -203167 -96942.2 556363 -136158 280233 -237350 
120 1 25.3926 34.4932 1.37498 0.217731 -98638.9 62025.9 165398 142950 193311 -202001 
182 1 27.2162 34.4461 3.28167 0.142373 90026 36254.1 880916 494565 38615.5 -170279 
1429 1 25.4727 36.1328 3.29963 0.323225 -8423.09 270759 703304 50468.5 319757 -393422 
185 1 28.9573 32.7148 3.21316 3.49854 -781519 -378330 -309357 413964 -92512.2 -114895 
123 1 30.705 32.7478 1.22199 0.270737 -428018 -707505 -497180 -60672 41440.3 42983.5 
124 1 28.9683 34.5086 1.22611 0.373381 -59380.4 -169232 324237 -75750.5 -81854.9 -378779 
186 1 30.6496 34.4139 3.14675 3.77265 -758678 -727028 -477976 332830 -136653 -172560 
1367 1 34.3981 36.0371 1.24363 0.496928 -686417 -863334 -747429 -16685.6 -196335 23389 
2850 1 36.1051 34.3598 1.11165 0.399018 -305966 -324508 188088 193862 67142.3 -61390.5 
128 1 32.5569 34.373 1.10824 0.526257 -586426 -990114 -937669 -270701 -185818 104415 
189 1 32.4884 32.7963 3.0507 3.79703 -832232 -648604 -159960 -734967 4686.46 325164 
127 1 34.3283 32.5036 1.20493 0.474385 -267673 -140463 -197065 196416 218709 -52019.9 
190 1 34.233 34.3337 3.01949 4.10457 -985311 -1.14993e+06 -109846 -159751 -280604 414642 
1437 1 32.6093 36.013 3.05399 4.0841 -729554 -751723 -256499 580372 -24788.2 -410993 
129 1 21.4912 23.6954 4.02237 44.0344 102972 -310908 404298 -216588 -103693 372511 
131 1 23.4129 22.7001 5.21841 23.3708 440724 -208405 1.13648e+06 107168 5116.9 40289.3 
193 1 22.7525 23.4413 7.57377 20.1342 295082 385012 717739 -344955 -130328 98587.9 
132 1 22.862 25.01 5.63437 9.5171 -295115 -907768 5982.09 -375259 -121856 -536021 
194 1 24.6021 24.9519 7.36932 5.41683 -1.17802e+06 219032 629663 -262936 -342684 -223145 
197 1 25.2042 22.5449 6.99464 13.9847 1.10837e+06 358014 1.00435e+06 -295612 -483159 63305.3 
136 1 25.3226 24.2866 5.02852 5.21073 -440400 -726063 -456578 -437594 -355730 132075 
135 1 26.9287 22.3777 5.01411 15.742 508225 41230.6 1.0891e+06 -456060 -374564 370127 
198 1 26.967 24.3386 6.99637 5.17388 -779236 -624528 -275252 46497.2 -27019.7 308032 
201 1 28.57 22.2583 6.9257 15.0893 1.10131e+06 -219296 518551 -284407 -194409 479948 
140 1 28.7324 23.938 5.26754 1.126 -65871 -162067 431194 -495229 -340822 584368 
139 1 30.4716 22.103 5.18879 16.1721 1.24033e+06 482176 1.11758e+06 113871 -284431 -178195 
202 1 30.4922 23.8978 6.93987 0.359861 -45901.9 -148070 -455046 14561.5 -153528 477168 
205 1 32.3585 22.194 6.90742 15.4887 708578 -23884 439743 3673.23 -89991.1 281563 
144 1 32.3525 23.9165 5.20292 0.599087 114509 -416254 194613 206960 78580.2 438549 
2868 1 35.8043 23.7736 4.99548 0.19159 -337381 -6336.19 51674 -131707 -96443.4 -131323 
143 1 34.0413 22.0196 5.03854 17.4122 897083 217432 805771 -144658 173090 168633 
206 1 34.2725 23.8412 6.91865 0.888772 56018.4 -335493 593574 -304151 231912 231325 
2937 1 35.8282 21.9052 6.98362 17.7108 650208 179877 1.05341e+06 -182847 510873 98753.8 
147 1 24.5482 26.7219 5.42231 5.39957 -90503.5 191129 1.16127e+06 -388950 -179027 227069 
148 1 22.1799 27.4908 5.30384 12.5584 -419677 -188638 -616853 -372116 -11580.6 -104127 
209 1 22.761 26.6953 7.46434 8.93234 340213 713231 -130882 -91926.1 -237423 -92131.1 
210 1 24.5296 28.4422 7.40551 4.88502 786703 492978 427353 -56022.1 -49000.1 371252 
151 1 27.0523 25.969 5.11312 5.42691 -384340 -160974 -682155 -889780 -496788 373350 
152 1 26.3329 28.4563 5.50725 5.95385 767668 312280 1.19976e+06 -312509 -56751.7 94539.5 
213 1 26.4006 26.6626 7.37709 4.91445 235177 -394717 147562 36714.8 356957 -549735 
214 1 28.1952 28.4549 7.45696 4.95643 49165.3 -334024 559192 93893 130354 -413011 
217 1 28.8301 25.9945 6.96946 5.32556 -185473 150327 50225.5 -499183 -186197 427096 
156 1 28.874 27.5564 5.0975 5.29067 191549 195612 317174 -563131 -27107.9 617498 
155 1 30.6379 25.6722 5.1031 0.298717 285985 121400 729149 50247.3 82580.8 226959 
218 1 30.6868 27.6188 7.04223 5.00428 -191918 121887 516491 -1.04745e+06 204283 350524 
160 1 32.3251 27.4956 5.15828 0.570938 75808.5 118053 372946 -217058 -172939 44048.4 
221 1 32.4956 25.7028 6.97601 0.481758 803693 442977 192820 -40523.8 -125672 193238 
159 1 34.1299 25.6509 5.0001 0.169512 -206901 -22304.5 292565 -320127 6486.99 175168 
2955 1 35.8805 25.6555 6.91946 0.209563 -114064 -426958 946796 -347969 -31229.2 -4561.87 
2886 1 35.8786 27.3535 5.02692 0.0990975 -505482 -183449 -148878 34345.9 -84755.4 377172 
222 1 34.2039 27.5541 6.84737 0.50172 -177014 -168560 50129.8 -524684 -61794.6 255588 
225 1 22.0153 29.1943 7.05711 14.3741 570475 891432 939891 -226299 273391 -175703 
163 1 23.7983 29.2208 5.21686 5.22024 -852222 -429343 -408766 -932163 263498 115164 
164 1 21.9188 30.9906 5.27621 18.0504 491434 429163 367312 -59601.8 206237 30737.5 
226 1 23.8847 30.8853 7.08875 5.85232 -102573 5021.38 282519 -405739 477865 -401502 
167 1 28.2172 30.1061 5.48143 5.79054 364551 488496 940616 -526735 -257114 203477 
168 1 25.5678 30.8482 5.24409 4.99163 21852.8 91895.5 194157 -531301 457427 -56959.9 
229 1 26.4822 30.1337 7.53691 5.17097 330143 35759.1 882921 236813 -382919 93143.8 
230 1 28.1666 31.935 7.47554 5.7327 -118449 -796829 614867 -245882 -342324 29120.4 
171 1 30.6414 29.3611 5.00217 5.29641 93694.2 348916 545289 -74597.4 -291472 20134.9 
172 1 29.8896 31.8781 5.30851 4.97592 587074 475722 716713 -274342 -54525.9 117240 
234 1 31.8051 31.8289 7.36493 5.16557 -287427 14228.5 758136 -25376.7 447192 -207744 
233 1 29.9305 30.1964 7.33642 4.72797 -359747 356766 306381 -241796 155556 -423080 
176 1 32.4249 31.1213 4.93089 6.08815 142414 443931 601348 -641009 -307090 262005 
237 1 32.2811 29.3422 6.91423 5.35944 -268202 -305052 396099 -789094 -68261 -370398 
2904 1 35.9879 30.9459 4.98142 0.120393 -165602 -176869 214390 192292 -174625 166169 
2973 1 35.9367 29.2011 6.89932 0.125178 -507242 -54794.7 -19421 -477908 -7324.22 335401 
175 1 34.1833 29.1827 5.01283 0.115494 298343 4045.72 249760 -130277 -74292.6 544910 
238 1 34.0959 31.0462 6.89306 5.82247 -79678.5 322636 570607 -198477 -120463 251529 
241 1 22.0301 32.6141 7.21092 17.6156 747121 977194 860672 120247 83905.1 -150177 
179 1 23.7776 32.747 5.27389 0.30714 276660 375111 439201 -55.7306 149855 -282564 
180 1 22.1035 34.5865 5.51358 13.1436 -164907 690706 781041 -170693 -160288 -46378.3 
242 1 23.925 34.4216 7.18644 0.276852 -430977 534030 19992 19310.2 -39766.3 -151419 
245 1 25.6612 32.565 7.25646 5.29553 -384231 -194176 52474.6 -453217 627262 -161370 
183 1 27.4059 32.5695 5.16462 5.64271 240741 115818 269121 -46507.7 164359 -280208 
184 1 25.7061 34.3947 5.37202 0.900243 87524 293350 349390 -146554 8693.85 -312932 
246 1 27.4395 34.2639 7.09077 5.02467 -473664 -443432 -456006 56222.1 -319954 79513.8 
1501 1 25.754 36.1231 7.15705 0.237207 347565 -143897 156134 -76239.6 141116 -297255 
1505 1 29.3223 35.9735 7.06358 5.75306 -396631 -55361.1 213024 -23622.5 309556 -314654 
188 1 29.1288 34.4219 5.11476 5.06108 166506 81765.2 -53827.1 -311629 351779 -373382 
187 1 31.6805 33.6559 5.24979 4.92904 1.01049e+06 748306 830231 -214962 -72365.6 -215261 
249 1 29.9658 33.5447 7.37633 5.03284 163668 -93219.1 823024 -339900 50024.2 326420 
250 1 31.712 35.3363 7.24081 4.95075 101790 304311 1.03944e+06 158032 -307169 208054 
1435 1 30.8921 36.1219 5.00455 4.88179 -149343 -569765 -314253 -340089 8044.11 -206308 
2922 1 35.9171 34.4309 4.97475 4.89381 159383 -12765.8 109301 -299119 -253544 -12423 
2991 1 36.0286 32.6606 6.91801 5.0503 -211473 32663.8 80457.3 -161365 -549187 153048 
191 1 34.2348 32.7281 4.9965 4.7932 -37647.1 -348440 394093 -789395 -111990 268428 
192 1 33.5205 35.3353 5.27783 5.5392 523621 516491 1.11232e+06 -446549 -77202.2 31752.1 
253 1 33.5693 33.5884 7.29699 4.78487 525600 639530 941623 -230131 157254 -304538 
254 1 35.4843 35.2126 7.2835 5.62179 220178 706470 482829 -37460.3 284860 -8776.85 
195 1 24.3039 23.0128 9.45956 16.2125 526987 840772 1.40022e+06 223982 -145119 -18609.7 
257 1 22.9431 23.3524 11.5253 27.2287 681430 838665 1.32655e+06 -270574 213205 -289605 
258 1 24.7394 24.9222 11.3205 0.592101 -625176 -56244.6 642051 203193 343159 -112724 
199 1 26.7656 22.5313 8.87933 13.2318 374426 -421298 80833.6 -222627 -21688.8 -133506 
200 1 26.2041 24.8154 9.36594 5.11613 172961 -196223 47519.4 489163 153279 -105230 
262 1 28.0513 24.6511 11.0339 4.55112 247016 180844 86646.8 -171278 308377 273499 
261 1 26.2516 22.9406 11.1963 11.157 839361 214166 -180545 -94908.8 74551.5 17761.5 
204 1 28.6774 24.0262 8.7045 6.46015 -389967 -496393 -510267 -111359 -222678 148730 
265 1 28.8158 22.2748 10.4036 12.4741 555465 -6928.47 131174 -235102 400090 402098 
203 1 30.4374 22.2602 8.69813 16.8134 433439 -28060.7 360811 27578.7 628933 446272 
266 1 30.5281 24.111 10.5362 6.40633 537108 -721502 541118 -414436 128950 258812 
269 1 32.3509 22.0652 10.6038 11.1926 1.65304e+06 496269 1.33845e+06 -297509 262809 -133717 
208 1 32.3572 23.9362 8.75114 0.163343 333184 91900.5 557269 -314688 -117069 27887 
2940 1 35.871 23.7381 9.02155 1.28965 -480325 -309449 -34291.9 17548.9 2919.06 257455 
207 1 34.0996 22.0392 8.70844 16.3861 670946 348340 802612 -196624 157149 103782 
3009 1 35.743 22.0592 10.7493 15.8635 1.13534e+06 -370602 515243 19055.7 253170 166481 
270 1 34.07 23.9111 10.6181 0.392091 -170963 248435 214406 19072.5 366228 416978 
196 1 22.8548 25.0515 9.45574 14.0832 657457 674247 1.18212e+06 -216345 -30430.6 -473193 
211 1 24.6557 26.7291 9.3112 0.54921 -944381 -574342 938630 -140079 73654.4 -172823 
212 1 22.8389 28.2841 9.43746 9.29719 74117.9 1.14412e+06 1.40345e+06 186172 88530.1 -485137 
274 1 24.6421 28.2487 11.3312 0.451048 -692150 -506532 425774 112563 168281 99059.5 
273 1 22.9505 26.498 11.4772 14.7605 -34875.1 890391 1.21588e+06 122314 -43383.3 -138795 
215 1 28.1013 26.5184 9.38734 5.53349 183127 400046 442054 277700 366563 188755 
216 1 26.4208 28.2834 9.35283 0.37883 -112787 -610937 336565 -135649 205988 3820.98 
277 1 26.5564 26.7348 11.3057 1.11476 -468457 -263679 -324789 -99449.7 184346 278720 
278 1 28.3206 28.359 11.359 0.658851 -825062 -327474 -120820 -407260 120283 175495 
219 1 30.5517 25.8337 8.8081 6.46166 478526 349078 105122 -101693 -395292 701005 
220 1 29.9572 28.3077 9.42387 5.82676 495617 604819 819666 340544 74619.2 -424163 
281 1 29.9042 26.3488 11.2714 4.90849 -9418.26 -180873 40483.9 232900 531364 -236171 
282 1 31.7642 28.184 11.2495 5.7628 19502.8 -124174 384551 150605 223547 -394148 
224 1 32.432 27.5333 8.92037 5.71784 144812 168850 70952.3 -122026 -353527 342248 
285 1 32.3121 25.8366 10.6665 6.17841 2083.64 -260037 236806 -289681 417417 95708 
2958 1 36.0178 27.5086 8.73788 0.419332 290456 148435 197841 -32411.1 -152523 207116 
3027 1 35.8628 25.7398 10.7124 0.408055 70336.8 365167 669706 -147962 -2559.78 -146462 
223 1 34.1064 25.6884 8.91131 0.495239 109528 413310 266501 17145.9 -266052 210125 
286 1 34.138 27.5613 10.7381 5.88616 -223238 118356 730375 44804.8 -455275 -55986.4 
227 1 24.6203 30.0439 9.51262 5.7033 -13752.8 470813 844015 -165341 -208956 141950 
228 1 22.258 30.8923 9.00372 13.2322 179940 1.30028e+06 1.25854e+06 -404720 290922 340656 
289 1 22.934 29.9878 11.4292 9.69566 312004 1.31695e+06 1.26228e+06 153307 240287 -250493 
290 1 24.6907 31.8785 11.422 6.28978 233231 -119284 128738 -106045 368103 131257 
231 1 28.2958 30.0862 9.28942 0.477812 191182 34272.5 242577 207478 -175746 -393499 
232 1 26.3979 31.8323 9.58432 6.21448 -103378 395673 137905 -80621.9 -349082 188426 
293 1 26.4277 29.9607 11.2512 0.737479 234767 -315322 121869 -39589.7 -95122.7 292861 
294 1 28.2395 31.7771 11.2471 0.408808 59917.2 342134 246102 -118154 -114039 -152528 
235 1 31.8386 30.1125 9.24953 5.39688 -70158.1 278784 794245 69625.2 135928 -23019.3 
236 1 30.1159 31.8239 9.2516 0.328996 47062.2 -248096 329301 9088.41 134408 -167918 
297 1 30.1105 30.0875 11.2333 0.232118 539019 389406 714267 57332.3 60025.1 -238119 
298 1 31.9335 31.9571 11.2968 0.973685 -691422 93709.5 450027 2474.28 115916 152498 
2976 1 35.8736 31.0754 8.84994 6.04649 -643425 22401.5 54893 -412672 -115226 268089 
239 1 34.1889 29.3095 8.75989 5.53172 78429.8 67172.6 924053 -389801 209624 102352 
240 1 33.5634 31.7857 9.33549 5.46805 -716101 -357354 661334 -150715 249240 -402499 
302 1 35.3997 31.5903 11.2375 6.23036 -451266 -577355 175947 -136837 2247.44 -276844 
301 1 33.4689 29.9709 11.2999 5.32951 -32881.9 319645 729783 -246801 191582 -136710 
3045 1 35.9704 29.2958 10.7323 5.22851 437622 -298737 328166 -86689.8 -181931 7508.6 
243 1 24.0512 32.5469 9.02464 5.92172 -785912 -37041.3 156602 -93274.7 472778 -129573 
305 1 22.2188 32.6489 11.0344 16.3499 537585 1.30156e+06 799943 -291120 -148580 208704 
244 1 22.2691 34.2244 9.0777 13.6024 145751 656924 713643 47522 273553 -79711.6 
306 1 24.1509 34.2248 10.9858 5.9605 -964692 -652742 604525 88591.7 86029.6 -229457 
1569 1 22.3208 35.9012 11.0392 15.0326 -335320 773864 627862 -150778 -30334.8 -22883.2 
1499 1 23.8856 36.1337 9.11952 0.530531 -1.02264e+06 -414156 -280972 -145135 6571.16 -182967 
1503 1 27.6935 36.0683 8.94674 5.77108 66022.6 -6716.76 241705 -121934 123514 374991 
247 1 28.2629 33.5992 9.31562 5.26236 232963 108583 143126 -242909 -230281 -86002.1 
248 1 25.7714 34.3824 8.96955 5.65023 266016 105277 -393456 -228677 92321.5 -175502 
309 1 26.4892 33.6934 11.3028 6.16022 -262696 -443764 241352 228379 -525973 -253484 
310 1 28.4115 35.3816 11.3267 6.27711 191019 -612802 321843 -305439 120671 286649 
1573 1 25.8323 36.0297 10.8842 5.88677 432203 -680371 16101.8 246457 81415 182113 
251 1 31.8796 33.5435 9.26151 0.217255 -76375.7 -411114 402542 -34631.1 83176.9 -271632 
252 1 30.0538 35.2445 9.39328 5.44498 -263560 182261 277502 -154091 -173632 204263 
314 1 31.8918 35.1831 11.2064 0.547064 -362051 -32521 -28629 351323 144808 7464.47 
313 1 30.0495 33.4859 11.1756 0.722032 -328507 -355657 175399 140810 282651 283251 
317 1 33.7202 33.5123 11.1852 0.563495 -830409 -298263 161560 -652409 140480 -379721 
318 1 35.4212 35.2654 11.1353 0.114414 -250477 -724381 660166 -210128 197260 -199955 
255 1 35.2528 33.6218 9.24537 5.69571 241961 115766 254561 55578 254583 -38456.7 
256 1 33.5003 35.4075 9.15984 1.00558 422619 15314.1 820701 99412.8 32359.6 -103264 
321 1 23.3309 22.9852 15.205 33.0945 723350 1.00787e+06 938621 56207.3 -200656 -16663.4 
259 1 24.8832 23.1208 13.2447 14.3378 612037 461821 780881 -294365 183762 -114861 
260 1 23.0813 24.9253 13.4371 15.0394 454095 804900 1.30068e+06 -242081 -111295 -109608 
322 1 25.0064 24.871 15.126 0.7542 202448 159901 388817 -612522 -239051 -52181.9 
326 1 28.1983 24.7072 15.1943 1.04917 421276 -589450 933260 338909 251380 303722 
325 1 26.57 22.8563 15.0724 16.6781 1.55457e+06 706469 1.65944e+06 -206848 -510860 -5950.45 
263 1 28.0865 22.7931 12.8577 10.7696 1.08473e+06 807871 1.63795e+06 84283.8 -292793 224068 
264 1 26.6036 24.8791 13.0691 0.770575 -34095 -244765 793481 -498002 247852 64752.3 
330 1 31.7456 24.5478 14.9058 5.73408 824551 560087 1.2372e+06 -113643 -49494.4 -38898.3 
267 1 30.4745 22.2982 12.301 12.728 385731 26623.6 1.31261e+06 -471432 135431 93080 
268 1 29.9083 24.6256 13.1172 5.31576 1.07197e+06 53495.5 920096 82579.2 -46363.7 207757 
329 1 29.8075 22.8735 14.9492 10.0662 780077 331052 1.21457e+06 271087 270503 289657 
272 1 32.3468 23.794 12.4704 6.6172 161498 -114221 719935 49260.1 73656.9 -6977.95 
333 1 32.1584 22.1505 14.3623 14.6465 1.08238e+06 157544 1.32678e+06 -87987.6 501920 131207 
3012 1 35.8116 23.7832 12.5051 0.557284 431085 211539 55178.2 18637.6 372099 -259536 
3081 1 35.9209 22.0503 14.4591 17.9091 1.12717e+06 484626 1.45263e+06 -15510.8 49144.2 100940 
271 1 33.9821 22.063 12.6293 15.9673 691872 -227987 1.04932e+06 249292 224492 -302785 
334 1 34.1381 23.794 14.3856 6.42357 529231 104478 465894 7506.76 174376 122154 
337 1 23.0606 26.7556 15.2698 15.3395 574264 782772 283443 -299722 -158434 624612 
338 1 24.9752 28.4272 15.1999 0.613294 -571799 -457011 -98011.6 30841 -331866 91927.3 
276 1 23.0703 28.3184 13.4349 15.2234 63075.5 495660 527921 -49830.1 48035.7 209726 
275 1 24.8667 26.6251 13.2814 0.170965 -386984 -218858 493225 101720 -100412 189544 
279 1 28.3149 26.5512 13.0921 0.284323 -1.55492e+06 -720148 -143435 -652971 -98213.6 286846 
280 1 26.6385 28.3907 13.2258 0.227039 -268402 -403188 -26106.8 183067 350633 93543.5 
342 1 28.4583 28.44 15.0857 0.547337 -548731 -289507 42177.4 132363 280714 -80001.1 
341 1 26.6607 26.6387 15.0927 0.247311 -115227 -390969 517927 56852.7 -10605.9 -49389.4 
283 1 31.7879 26.3514 13.093 6.46805 -33156.5 332848 385142 -383568 191648 50399.5 
284 1 29.9925 28.2051 13.1384 0.366706 -706017 -526067 -284567 -275460 -159730 375336 
346 1 31.7678 28.1452 15 0.474093 -368131 -504829 339825 -30813.3 223136 202051 
345 1 29.9882 26.4968 14.9025 0.81075 35692.3 13213.9 400798 -253694 -124398 197504 
3099 1 35.9553 25.6374 14.4731 6.19052 34893.4 427474 268708 95074.7 64289.6 330294 
3030 1 35.8861 27.504 12.6027 6.01612 -454755 -589478 381467 -548676 -79911.9 -92966.1 
349 1 33.487 26.3609 15.1501 6.37818 262929 390916 267708 -120448 203080 188631 
288 1 33.5076 28.0599 13.2371 5.44683 -562495 -687916 221123 -74499.5 262757 -223386 