ITEM: TIMESTEP
19400000
ITEM: NUMBER OF ATOMS
5780
ITEM: BOX BOUNDS pp pp pp
3.9273093022041157e+00 6.8372690697811379e+01
3.9273093022041157e+00 6.8372690697811379e+01
-6.9438489804734278e+00 7.9243848980488963e+01
ITEM: ATOMS id type x y z c_csym c_2[1] c_2[2] c_2[3] c_2[4] c_2[5] c_2[6] 
68 1 21.8438 23.9552 -3.63312 21.9205 706631 270280 1.64428e+06 120879 100694 -40953.3 
65 1 21.906 22.3027 -5.62079 46.1266 617794 671362 1.28641e+06 -489700 222183 47950 
66 1 23.5749 23.9443 -5.58399 6.17677 -782838 -390235 839427 -659800 -106743 81715.2 
69 1 25.1596 22.0447 -5.72782 12.8468 1.03388e+06 474429 1.61402e+06 222247 -1094.45 -51273.9 
67 1 23.7139 22.3414 -3.65019 19.3673 -75917.7 163730 888005 105713 -170922 37928.5 
73 1 27.5159 22.6399 -4.98038 10.9398 433355 88356.1 1.04475e+06 200151 353884 197645 
70 1 25.8527 24.4142 -4.94747 5.34198 -707767 214572 577913 -36371.7 -45790.3 -67835.8 
12 1 27.5361 24.4222 -6.83728 5.721 -796294 -501848 -529883 -333889 -226529 -408223 
74 1 29.2851 24.4003 -4.94576 0.164959 -464992 -230661 160410 -167804 -92241.6 25629.8 
77 1 30.9425 22.5614 -4.7237 15.4638 446637 132126 882359 -62506.2 -47656.2 -127170 
11 1 29.2542 22.6452 -6.84776 9.71257 263536 -350349 635234 -199394 137267 191649 
16 1 31.0194 24.3377 -6.72209 0.227828 -138545 -147064 102901 135414 -26362.2 -383948 
15 1 32.8021 22.5382 -6.67961 16.5833 1.09139e+06 210734 880520 -17398.6 18933.6 -219402 
78 1 32.7458 24.2325 -4.82916 0.531966 -395523 -551871 158804 395474 -57362.6 88238.6 
2793 1 34.5 22.5777 -4.74387 16.5401 212514 -197568 102639 423873 49145.6 -172733 
2724 1 34.5605 24.3276 -6.62305 0.347991 -268726 -633627 346045 159048 -92277.9 5195.28 
81 1 21.4785 25.5728 -5.62356 16.8352 1.26639e+06 1.59662e+06 1.38994e+06 109381 199095 -606601 
82 1 22.1003 28.0675 -5.10086 9.37333 324873 1.18688e+06 757576 -39141.4 371598 63924.2 
85 1 24.0211 26.3268 -4.84959 5.75338 500329 310017 16379.3 -48338.5 599712 -10811.8 
24 1 23.8304 28.1608 -6.87701 5.38784 132634 -365071 23767.7 30965.5 218646 -583265 
86 1 25.8206 28.0956 -5.07561 0.358739 255826 -445639 -408594 -125187 123848 -415937 
89 1 27.5264 26.207 -5.00894 0.35858 -35623 27893.5 306554 -99360.3 388926 37760.1 
23 1 25.6659 26.3645 -6.75932 5.19015 -157183 -477443 -414484 -433882 -321473 -629674 
28 1 27.6215 28.0141 -6.83469 0.369781 -520214 24780 -327373 -143844 -125296 -170386 
90 1 29.2419 28.0872 -5.0196 0.34546 -72049.3 632519 37884.5 14845.9 -59615.1 -11603.8 
93 1 31.0659 26.0862 -4.97025 0.57972 427551 -48030.8 -148905 -220614 -28584.4 88780.3 
32 1 31.0822 27.9548 -6.75352 0.405525 85229.7 47750.2 846605 -513950 63430.8 -80242.6 
27 1 29.3311 26.1688 -6.85602 0.0846775 -364310 -297766 -57234.4 35002 -214124 22241.2 
94 1 32.9775 27.9472 -4.83501 1.17212 -259722 -678207 -56844.7 -84190.1 278102 152931 
2811 1 34.567 26.1354 -4.86759 0.334403 -633903 -591874 262052 -18432.7 249606 -218864 
31 1 32.9015 26.2534 -6.77541 0.713831 -86505.5 163422 362081 -108869 210863 -76471.5 
2812 1 36.1029 27.9112 -4.8894 1.23694 22386.1 -428826 311275 -311013 523723 -97389.9 
97 1 21.6829 30.5205 -4.41933 23.4613 -563263 -308700 575020 -635550 -219695 358202 
36 1 21.6874 32.2013 -6.23831 23.1775 -320459 676998 121872 -108693 -157602 -190873 
101 1 23.9156 29.8692 -5.22794 5.54395 -18535.6 -326542 156916 -337684 407481 -112758 
98 1 23.178 32.2834 -4.36724 5.21257 -598621 -642749 -637185 -763526 -532108 198906 
40 1 23.9491 31.6248 -6.93219 6.03316 -455837 269709 70092.1 242577 209855 350880 
102 1 25.6882 31.6101 -5.11008 5.95064 365416 -177691 -76595.9 -368457 -147288 -135308 
105 1 27.5844 29.9328 -5.03171 0.292505 -687465 -473755 -13342 -242189 402006 93372.2 
39 1 25.8077 29.8921 -6.87474 0.335853 -99029.7 -273937 -369795 -161647 532363 -193316 
106 1 29.2435 31.6514 -5.03601 0.191286 54862.7 -242440 487953 -571172 -45745.4 -64105.6 
109 1 31.1525 29.8451 -5.04211 0.250303 309128 237745 -77663.3 -279535 489931 -11081.8 
43 1 29.2305 29.9195 -6.89933 0.474995 501345 374639 254037 -129592 84617.7 19203.7 
48 1 31.1882 31.6973 -6.80274 0.87318 851326 547831 122965 -170121 100972 91087.2 
110 1 32.8925 31.6263 -4.9455 0.294064 -659985 -541631 -165409 49146.7 -40008.1 419850 
2829 1 34.5086 29.7706 -5.0412 0.664659 -1.0249e+06 -742573 -134769 -71709.6 245877 157679 
2760 1 34.6229 31.4916 -6.87058 0.293153 90541.7 397943 -27654.2 3497.91 -132111 130284 
47 1 32.8137 29.6364 -6.79476 0.70609 -808229 -30445.6 64340.7 7134.2 67876.4 97830.1 
56 1 25.1687 35.8452 -6.34591 0.19396 -214597 53949.3 324868 -58878.4 -417403 175734 
1281 1 22.6987 34.695 -3.94813 22.9548 282072 989943 895905 384980 281523 -381756 
51 1 23.36 34.0491 -6.2434 5.025 -107809 78441.5 463543 -147595 -5990.93 -48993.5 
117 1 25.0433 34.1087 -4.48754 0.142074 -840190 224337 -21544.3 -300003 -546755 366444 
121 1 27.44 33.4111 -4.93957 5.00974 -828896 -254414 27017.4 -255627 -497036 -89668.5 
118 1 26.7915 35.7962 -4.49245 0.266347 -566482 -747860 -127101 -434722 -119746 -94031.6 
60 1 27.5029 35.2234 -6.92877 5.58126 -877309 -69360.7 35060.6 325376 93624.7 140028 
122 1 29.1691 35.1158 -5.13215 6.10626 223696 -28958.8 -180361 -264746 -230502 479685 
125 1 31.0788 33.3386 -5.00327 0.399857 280198 -398147 191729 -144839 166574 -307533 
63 1 32.9821 33.562 -6.82229 1.47761 -295716 16752.5 -135228 63892.5 -215048 9119.22 
126 1 32.7891 35.1718 -4.99273 0.264536 623553 2489.2 235084 -62238 148757 -286270 
2847 1 34.6181 33.3982 -5.01601 0.245296 -398930 71020.9 84774.5 -111249 -177595 270665 
2778 1 34.7522 35.2493 -6.78135 0.648666 -317892 -541291 118345 -344063 -14049.7 128424 
130 1 22.2862 24.6446 -1.11027 12.051 210714 366407 1.20811e+06 -31747.6 -84764.9 295056 
133 1 24.0457 22.9539 -1.19979 12.0794 535334 202181 640597 84992.2 -116911 47029 
72 1 24.2496 24.6751 -2.99767 7.267 45754.9 -918466 -111642 -288559 -83059.7 139299 
71 1 25.9704 22.6784 -3.01134 10.5715 -52762 244688 1.4292e+06 -660816 38654.6 181550 
134 1 25.9599 24.6543 -1.1613 0.453245 -597849 -4336.94 -168385 -708038 202419 -2669.69 
137 1 27.7162 22.6936 -1.0674 13.9089 1.01225e+06 415241 892607 -343203 -11075.9 -35930.6 
76 1 27.5446 24.489 -3.00035 0.207771 128646 -47688.5 448827 -177132 244106 41992.2 
75 1 29.218 22.5949 -2.99335 16.7524 777041 510145 528674 26811.4 599971 38867.7 
138 1 29.3276 24.5422 -1.14992 0.164667 -58098.8 -119147 412234 -407732 302178 43438.7 
141 1 30.9907 22.6867 -1.16382 15.9706 852831 36671.2 1.29241e+06 -250070 111160 74735.9 
80 1 30.896 24.5049 -3.07427 0.704017 -26787.5 -219413 -324934 138805 82689.8 138116 
79 1 32.6981 22.5485 -3.04413 16.8461 605107 316896 82161.2 -290945 53684.2 484551 
142 1 32.6469 24.4353 -1.16262 0.314669 -180640 -491125 587623 192962 116720 101021 
2865 1 34.3483 22.6803 -1.06384 15.8714 1.02814e+06 167408 1.08883e+06 133843 -78673 154323 
2796 1 34.5034 24.3169 -2.9999 0.199235 511671 -113685 425832 103214 -257703 -34985.9 
84 1 21.6626 28.6695 -2.73644 20.7049 -363025 561840 665844 4951.71 53957.3 -335311 
145 1 21.4541 27.0181 -0.548821 36.923 740228 989832 1.39378e+06 -307371 -343323 45145.1 
83 1 22.3452 26.2665 -3.10466 9.12685 -186648 22113.3 1.20989e+06 -16253.4 283752 253173 
149 1 24.0403 26.3706 -1.21762 5.36021 290131 -677166 -394887 -537075 132558 -487453 
88 1 23.9619 28.2344 -3.25591 5.53344 -568455 234401 636017 -459533 239838 -367442 
146 1 23.2324 28.7107 -0.778836 5.2061 52794.7 -199352 53959.2 7721.84 -49268.6 765512 
87 1 25.9266 26.425 -3.14685 0.737155 -337435 -467358 -136515 -699297 50573.5 -149155 
150 1 25.6907 28.0968 -1.35029 6.11851 35334.7 87476.8 557831 -234998 20759.1 -354081 
153 1 27.5147 26.4142 -1.15811 0.276492 -649345 -250081 174852 -674762 -303423 -35574 
92 1 27.5481 28.2052 -3.1914 0.323482 -342534 38602 499872 -88854.7 184476 201622 
91 1 29.3484 26.3783 -3.03039 0.45279 378193 40516.8 852424 172699 122307 1659.8 
154 1 29.3168 28.155 -1.23064 0.118557 445712 70521.4 342537 -271397 -163879 -10662.4 
157 1 31.0511 26.3041 -1.08035 0.463459 -257875 -358721 101969 26434.6 -65186.1 -137651 
96 1 31.1368 28.0463 -3.23228 0.704839 -75544.5 344104 811744 15110.3 191010 102754 
158 1 32.7923 28.1423 -1.25511 0.338022 -188232 205102 606861 92437.7 612964 -163497 
95 1 32.7926 26.2142 -3.0224 0.084821 340314 103496 420558 158113 33361.4 325126 
2883 1 34.4972 26.2755 -1.06518 0.120645 436030 454382 382430 195928 79136.2 495681 
2814 1 34.625 28.0067 -2.91334 0.593045 -721467 97246.6 -393761 -97953.5 247015 2478.66 
99 1 23.2318 30.6174 -2.52513 5.3479 -41539.9 -759787 -441637 35913.3 -409076 111935 
165 1 24.9737 30.5816 -0.726335 0.27803 -564263 747127 587184 -79776.5 -165457 98539.8 
113 1 22.7206 31.2046 -0.225445 20.4763 -335595 773291 176761 261783 273392 -193467 
104 1 25.0909 32.3261 -2.71004 0.60512 -539798 2982.76 747188 -328344 -83128.8 75325.4 
108 1 27.4287 31.6564 -3.09594 5.05821 -173886 76757.5 126976 -238202 -79845.5 360888 
103 1 25.7527 29.8794 -3.29569 6.58625 -39432.4 -503132 548729 -528853 30287.3 -17155.6 
169 1 27.4533 30.011 -1.26809 6.36973 487966 -121342 554024 -463731 -56945.7 505007 
166 1 26.7594 32.3983 -0.674206 0.162301 326425 33702 79454.5 -151057 165233 -38852.4 
170 1 29.1909 31.7015 -1.28034 5.90998 29424.6 -37169 778963 -660172 -128728 -183807 
107 1 29.4315 29.9708 -3.11849 0.670462 14208.2 8946.52 430394 -549167 -172495 6735.03 
173 1 31.089 29.9399 -1.25825 0.136033 62078.3 -32050.1 229467 -11307.7 -259145 246766 
112 1 31.0963 31.6438 -3.16632 0.241702 -132174 -285939 50528.9 -689031 51458.5 204269 
111 1 32.9498 29.9529 -3.1881 0.715325 -58670 -316006 -25815.8 -223961 246771 341186 
174 1 32.7818 31.8059 -1.24562 0.649606 -75344.7 58818.1 96621.9 -264437 184043 -141481 
2901 1 34.604 29.87 -1.12364 0.209701 354771 406691 348251 -81952.8 168711 -137559 
2832 1 34.6292 31.6463 -3.0741 0.0887504 -844615 -506034 227689 -549561 -72757.8 -46779.7 
52 1 22.7019 32.8869 -2.05602 20.7354 65460.7 -322616 126551 121661 133266 -239061 
1283 1 24.3307 34.7301 -2.0161 5.32728 -383978 -46639.6 266770 67564.5 -23714.2 364685 
114 1 24.3534 33.1447 -0.197487 5.68997 -199628 -343062 254196 -101276 -150574 483090 
1357 1 26.1048 34.8793 -0.204696 0.215809 -103070 -300603 -425598 -261445 100246 -151205 
119 1 26.6732 34.1619 -2.60394 0.404858 -239260 -224537 -59261.8 -289732 -94704.5 -27338.7 
185 1 28.5324 34.1511 -0.757086 0.169352 222041 -75108.9 376102 -179349 295293 -245710 
124 1 28.595 35.9423 -2.62575 0.264563 118570 -335397 19285.7 104752 12422.8 39551.3 
123 1 29.1324 33.5626 -3.29679 6.24634 -342317 -129831 -142724 -706625 -526999 121043 
128 1 30.9907 35.0844 -3.13622 5.40469 -429767 226752 3494.33 -103200 -30247.8 1061.41 
186 1 30.3916 35.8217 -0.809619 0.148888 -268781 -151047 -413070 -285666 208647 -314882 
189 1 30.9281 33.4224 -1.32414 5.66085 66992.5 -434049 546606 165277 290615 169855 
127 1 32.8565 33.4902 -3.10852 0.252577 171397 -382923 -50632.6 271021 18877.8 -48769.9 
190 1 32.8184 35.2432 -1.42003 6.47874 153689 -418572 475381 123417 127753 -592795 
2919 1 34.6541 33.4256 -1.18019 0.241674 -520588 101698 399515 -128867 422263 -181225 
2850 1 34.6929 35.3084 -3.10733 0.530925 -297516 77377.8 224670 17449.8 493599 161727 
129 1 21.7766 25.3671 1.28297 25.7615 195391 176987 654149 -228402 -89344.8 34145.4 
193 1 21.8853 23.5543 3.06804 49.6692 -86542.3 274774 130408 229540 295624 -193126 
131 1 22.5534 23.0566 0.886001 36.93 -134924 -278012 -552147 -307291 57801.3 34692.2 
197 1 24.1852 22.9472 2.6519 14.1611 -588950 -46072.3 124412 -342864 -2763.16 -44854.1 
136 1 24.2019 24.7122 0.629301 5.25838 -985536 -1.65633e+06 133015 -642264 -61729.7 79015 
194 1 23.4915 25.3818 3.08701 5.29958 -728857 -523668 1.12585e+06 -86196.1 7436.66 -267021 
135 1 25.6769 22.8091 0.67979 14.2256 772831 209547 666496 404991 -349622 75402.9 
198 1 25.8075 24.6934 2.5635 5.68549 -780412 -1.03779e+06 259033 -523980 -279832 283628 
201 1 27.4412 22.8029 2.40762 12.9435 467228 274104 436375 92156.5 -75020.3 492469 
140 1 27.6018 24.5768 0.722255 0.338293 -150309 -321298 -247721 -114918 -417815 361822 
139 1 29.3549 22.7415 0.797501 14.9953 482614 446180 586270 -5805.65 -259953 -68841.4 
202 1 29.2228 24.6616 2.55146 0.415952 573241 472398 516642 219784 -294366 131250 
205 1 30.9183 22.7214 2.71103 16.7107 594688 518562 632405 -171665 -23945.4 -3243.92 
144 1 31.0727 24.6092 0.768951 0.381527 -109109 -257187 308309 -319119 99800.9 239495 
143 1 32.6513 22.729 0.868142 16.4692 836256 -125152 654104 109889 11170.7 -255801 
206 1 32.7615 24.4193 2.65722 0.501937 -329251 -620298 -107577 177757 -91367.6 -213617 
2937 1 34.3387 22.6242 2.75003 16.0083 713363 122178 1.23572e+06 450132 -415801 -158233 
2868 1 34.3805 24.5285 0.760853 0.385807 41082.6 -53785.9 436165 78060.8 201999 119657 
147 1 23.4121 27.1151 0.976054 4.98264 -560551 -923760 -395819 -409157 350473 234234 
213 1 25.2121 27.1133 3.15742 0.377754 -1.24696e+06 -106982 349190 -220135 779154 -486957 
161 1 22.8551 27.6452 3.4911 18.2701 -283502 58263 1.23042e+06 285549 21379.4 -55858.6 
152 1 25.088 28.8335 1.06533 0.270727 -580093 -462765 661114 -524389 30323.7 252414 
151 1 25.8729 26.4305 0.76019 4.97505 -229729 -517967 238960 -480268 180111 92228 
217 1 27.5006 26.4577 2.72551 5.2277 -909535 -222788 573065 -91613.7 -301206 403804 
156 1 27.4595 28.3239 0.604945 6.21118 -179801 -163707 818147 -247477 411546 -112503 
214 1 26.8449 28.9153 3.01121 0.488882 -324625 -152177 784322 -827119 80902.5 -72281.7 
218 1 29.3279 28.1336 2.61316 5.15049 64055.7 -384338 795219 -179208 27895 -111483 
155 1 29.2078 26.4666 0.636001 0.64475 339381 330786 282978 -312883 68792.2 169719 
221 1 31.1547 26.4414 2.66079 0.694971 191091 191974 261480 1546.32 48248.4 -399173 
160 1 31.1072 28.178 0.567143 0.446489 -129579 -481943 -83535.2 -106860 43340.6 -479853 
159 1 32.7503 26.3174 0.774399 0.199011 -806783 -235733 31618.4 114767 308993 -184142 
222 1 32.8791 28.1956 2.56621 0.424165 -349257 -105891 283227 170146 453209 108469 
2955 1 34.476 26.2764 2.77169 0.521136 -362355 -473189 109474 -217016 246332 335880 
2886 1 34.5843 28.1231 0.840688 0.328081 -677342 165804 104915 -268746 175600 -7309.14 
115 1 24.3761 31.3122 1.6539 5.09933 -229227 825855 -30388.3 181383 267392 -36685.7 
100 1 22.6954 29.4078 1.69195 20.1906 431271 993073 1.22121e+06 217299 44782 96092.6 
162 1 24.3889 29.564 3.54519 5.62989 -59741.5 263637 25997.6 -62279.2 112752 -17423.4 
177 1 23.452 31.925 3.80343 14.5737 1.18068e+06 1.22115e+06 694995 288465 406305 146566 
167 1 26.7317 30.6898 1.18102 0.405889 35306.8 -518268 212082 -250071 101706 49577.7 
233 1 28.6503 30.4607 3.03252 0.586024 54170.9 -145876 300765 -438410 313872 -103170 
181 1 26.1932 31.4 3.51517 0.599392 740630 -221222 331709 -264053 60589.3 -248247 
172 1 28.546 32.3725 1.2104 0.414448 231979 319517 156737 -100553 171574 -307098 
171 1 29.2883 29.9699 0.601967 5.78429 206522 213969 481733 -426338 -88296.3 -94762 
237 1 31.0553 29.8611 2.42883 6.37723 -480094 -305819 442453 -124925 381561 -60348.5 
176 1 31.109 31.6589 0.618535 5.88888 91124.2 -388088 262840 -173741 387542 -4517.82 
234 1 30.4692 32.2883 2.99022 0.283597 282771 534332 802241 -6669.98 140698 -35447.5 
175 1 32.82 29.9227 0.704982 0.142816 -558434 -289982 389311 -157273 490212 56133.2 
238 1 32.844 31.6394 2.6711 5.63097 288087 -54088.6 767581 214236 236922 -203506 
2973 1 34.793 29.904 2.70704 0.98162 23324.9 -482927 -65903.1 89020.8 25540.6 -258608 
2904 1 34.5892 31.6275 0.756539 0.29418 325107 75206.5 896435 -196149 -25921.5 -146958 
1353 1 23.6759 35.4174 0.399231 11.6378 311816 144100 494742 237324 726.38 209421 
116 1 23.6793 33.819 2.17568 11.1853 576513 321629 -185635 14401.8 -19788.2 23288.3 
1355 1 25.5774 35.5688 2.06435 5.51485 -2329.51 -155980 -547567 -338677 -161603 -124059 
1359 1 28.0759 34.8773 1.52001 0.516939 -374987 -521353 -557781 -166480 71575.7 -70832 
120 1 26.1953 33.1489 1.62492 0.171352 249824 -193688 -429003 144320 127806 -2423.71 
182 1 27.9834 33.0391 3.46565 0.169454 180828 184775 -106078 -381608 403008 -271042 
192 1 32.1317 35.7398 1.15586 0.801609 -811397 -557743 611308 36303.6 346770 -202811 
1433 1 29.7869 34.8064 3.37907 0.306605 475655 -28356 -193039 70941.2 181988 -237794 
187 1 30.446 34.0889 1.14304 0.249051 -505745 -788632 129518 -321994 368124 -241627 
253 1 32.3214 33.9754 2.98097 0.646926 240818 19940.7 79153.8 155937 271900 -340003 
191 1 32.8462 33.4016 0.62455 5.52624 -136000 -324529 210198 -32212.6 364797 -809730 
2991 1 34.6898 33.4986 2.51466 6.10486 -264991 -176919 617058 30225 444025 -107.111 
2922 1 34.5761 35.237 0.717091 6.67182 401167 -331919 93219.1 -54987.4 437399 121531 
254 1 34.1407 35.8736 3.10934 0.637955 412208 -340225 299398 257868 274696 -251261 
195 1 23.4962 23.4921 5.03445 23.5053 441696 393123 812742 -258429 -26391 -138781 
261 1 25.024 23.4801 7.0316 17.3968 -773336 660491 460945 219335 -879390 163916 
200 1 25.0733 25.3296 5.1441 0.628383 -1.133e+06 -341372 747345 -187769 -183666 -259651 
132 1 22.8339 24.3149 7.27793 53.8211 -291026 -111464 386493 353752 -135177 113872 
199 1 25.9798 22.9641 4.44795 12.6669 734271 -184656 1.10278e+06 -791116 -111722 222938 
204 1 27.411 24.8087 4.49586 5.94981 -680151 -1.15842e+06 67022.4 -903744 65674.7 367393 
265 1 27.5442 23.0587 6.46272 13.765 159151 -764051 358143 -449349 91979.3 -70357.3 
262 1 26.8235 25.3037 6.89946 0.517084 -119872 -344310 -154349 448545 -506407 124966 
203 1 29.0575 22.8854 4.35943 12.976 1.16275e+06 522173 924484 32477.5 115380 151741 
266 1 29.276 24.6469 6.38203 5.44365 -913530 -929089 562851 -401283 317882 380589 
208 1 30.9501 24.6241 4.53415 0.201106 -28788 -196269 32689.6 96769.3 6447.17 25069.5 
269 1 30.7576 22.8239 6.29457 14.5164 609433 -248745 815010 566404 357673 145663 
207 1 32.5886 22.7076 4.58716 15.962 644355 371845 598556 142753 -78416 -63543.3 
270 1 32.6564 24.5523 6.33314 0.132598 -158713 -375470 -349644 259801 -330395 183523 
3009 1 34.4527 22.7065 6.24227 15.8284 973934 455311 1.02857e+06 -60683 -183189 120833 
2940 1 34.4746 24.522 4.48715 0.184846 286520 -406547 -3050.86 84093.8 -72876.8 358420 
148 1 22.7616 25.9437 5.53723 22.3785 -59006.3 882562 1.12478e+06 53377.5 318806 498597 
163 1 24.4749 27.7199 5.37997 5.31365 -1.81463e+06 -436253 -1.16939e+06 107708 891836 -541661 
225 1 23.5341 28.3795 7.38031 16.7376 585211 634204 -521487 469250 600696 -81946.7 
215 1 26.7666 27.1493 5.2685 1.58601 -1.11636e+06 -1.07322e+06 510792 -27828.6 66792.3 13692.4 
281 1 28.6052 27.2574 7.09842 1.55782 -42105.5 480075 616230 -90643.9 -365223 125667 
220 1 28.5602 28.7799 4.98544 0.293404 255531 -423114 800987 -183195 353010 101304 
219 1 29.2195 26.4328 4.59351 5.27551 -60897.6 -350731 678675 -162135 -450024 238309 
224 1 31.0668 28.1454 4.45732 6.09971 153700 -318667 505389 27889.4 -184850 -342306 
285 1 31.0188 26.3752 6.37362 5.69664 -206938 -329024 200174 -218265 -63479.7 -153148 
282 1 30.4656 28.8164 7.00897 0.581545 268995 54757.5 1.38991e+06 -429785 126895 71535.3 
223 1 32.7723 26.3525 4.51573 0.108027 -720152 120097 -160943 250925 182357 77334.6 
286 1 32.7894 28.1335 6.4266 6.41472 -8114.79 327652 741873 -211449 197143 332250 
3027 1 34.5516 26.2887 6.40915 0.0848243 30505.5 358129 163286 126806 2371.8 92915.1 
2958 1 34.6154 28.1267 4.56528 0.225656 -203585 -179098 -83353.5 7798.03 31807.6 -158595 
164 1 23.6147 30.2229 5.70479 12.0104 155867 926632 202965 -223346 158275 46669.5 
179 1 25.3183 31.9818 5.80344 5.3888 -456673 -477469 -167663 -107162 118558 297570 
168 1 26.1293 29.4864 5.43569 0.478679 -463.527 -196845 -265887 9046.82 235939 -589332 
183 1 28.0381 31.2339 5.34709 0.642208 592574 348644 163624 122283 360533 -197404 
229 1 27.8166 29.5754 7.36993 3.70898 341174 -986295 1.49867e+06 34542.3 41850.2 -76924 
235 1 30.4207 30.5045 4.97027 0.16293 116957 89359.7 1.54939e+06 -206833 101255 -154912 
301 1 32.1882 30.6318 7.12771 1.12791 175468 301017 339999 -584911 212282 212384 
240 1 32.2216 32.1638 5.08839 0.869756 127083 -417080 1.08553e+06 -117674 2052.86 -185372 
239 1 32.8834 29.8841 4.57521 5.50757 461044 -304207 1.13403e+06 412825 53024 97514.7 
2976 1 34.8082 31.6769 4.44634 5.40529 412152 -73751.1 498944 79835.4 58591.2 -431841 
3045 1 34.6758 29.8377 6.42316 5.18239 45023 -138136 568992 -26851.6 -159848 -397827 
302 1 34.0012 32.2062 6.91996 0.605227 -155408 203358 873332 -623503 -252298 -39875.3 
1425 1 23.6659 35.3979 3.95229 10.7174 323447 543869 698980 52867.7 -212346 -505335 
180 1 23.555 33.614 5.73433 15.7688 203576 772161 1.06185e+06 423375 -24602.8 575461 
1427 1 25.4857 35.3768 5.71293 0.33297 -315733 -479852 -511935 225526 -105216 105379 
178 1 25.506 33.7001 3.94892 5.763 -90352.8 -433807 -406197 450830 -183653 -464341 
1429 1 27.3455 35.4381 3.89501 5.80808 -170027 -447635 -123922 -366042 14905.5 -58285 
184 1 27.2063 33.6446 5.7739 5.22284 -168147 -492527 -577327 298127 -223471 110270 
1431 1 29.1418 35.367 5.77308 5.78133 -57064 -34414 -444772 149053 -269171 77729.7 
1435 1 31.6673 34.6692 5.28277 1.14605 -345284 10077.3 1.06053e+06 -50282.3 434340 -473977 
188 1 29.8808 32.9842 5.43247 0.767775 451942 277102 655691 -85491.4 667372 -468656 
255 1 33.9758 33.9832 5.0422 0.407454 -364632 10870.8 1.28783e+06 -59022.6 83310.7 -66548.8 
2994 1 35.7664 35.6973 5.0932 0.533389 -347174 -526228 1.35512e+06 157111 10870.2 -231136 
3063 1 35.6915 34.023 7.06055 0.303595 380632 373574 842203 -161031 131407 21013.2 
196 1 24.2567 24.4385 9.37613 13.4335 337260 348558 1.29535e+06 -383718 -240221 -165962 
263 1 26.6107 23.3921 8.71974 17.9207 738400 765756 210770 -322650 -505767 55124.2 
329 1 28.4452 23.3838 10.7342 18.7247 1.4352e+06 644115 1.4651e+06 -129940 150996 -34749.3 
268 1 28.3711 25.2148 8.78986 1.20263 328463 988521 802334 137679 -14362.1 -118453 
267 1 29.2146 22.8753 8.28976 14.9646 1.10139e+06 395298 882158 -199669 1279.28 123590 
272 1 31.0272 24.6048 8.27785 5.23871 421038 -282653 569707 -38187.3 83764.4 49267.7 
333 1 31.0056 22.8418 10.2027 15.1773 956692 76737.9 794941 -119960 -255747 22655.8 
330 1 30.3176 25.1695 10.6826 0.206332 192149 -337126 827137 34014.9 302667 22866 
271 1 32.651 22.7794 8.11791 15.8789 761690 -246195 1.50153e+06 -294447 24259.5 238965 
334 1 32.7939 24.5711 10.1631 4.85376 -606621 -891178 75038.1 -329503 57496.9 6582.05 
3012 1 34.3365 24.4416 8.1689 0.734841 -236354 -776140 46116.4 -176479 -155306 163051 
3081 1 34.489 22.6983 9.98151 17.2571 1.08967e+06 154312 1.12468e+06 -224372 189820 79146.5 
209 1 24.5251 26.0771 7.51669 5.8929 -778024 -478455 494134 -859613 269420 14447.5 
212 1 24.4061 27.6523 9.6487 8.88841 -21746.1 255765 840083 12937.3 -66720.9 281511 
210 1 26.0914 27.7652 7.58445 4.46847 -221385 -522343 595587 -1.20134e+06 235596 -503344 
211 1 26.1645 25.886 9.51604 6.04432 -1.08179e+06 145144 513082 -122054 20405.3 270617 
216 1 27.932 27.7779 9.51055 5.34801 70830.2 269824 702367 332145 32166.8 -482763 
283 1 30.3306 26.977 8.8139 0.255218 357042 723867 585974 15970.1 -556785 149001 
349 1 32.1212 26.858 10.6881 0.306249 78700.9 -200429 602494 -163034 -120835 102351 
288 1 32.1471 28.7717 8.96778 0.352136 -184692 -1.08075e+06 1.00677e+06 -466429 83362.8 -111201 
287 1 32.8086 26.3486 8.25191 5.65362 -602973 -387346 -48811.6 -339426 -187611 6752.05 
3030 1 34.5618 28.0076 8.39559 5.53468 -85671.4 -1.09323e+06 277435 -12085.6 -271054 -41088.3 
3099 1 34.5387 26.2043 10.0762 6.24705 -658210 -1.23956e+06 156984 -140359 -59647.4 415542 
350 1 34.0369 28.5053 10.8401 0.870448 236390 -227025 456361 -509154 -51960.5 -19541.8 
241 1 23.5561 32.0263 7.59033 15.7687 322818 941309 670449 69664.6 127367 228183 
228 1 23.7422 30.0071 9.25851 14.9798 -518733 122935 -42474.1 -75625.2 493730 -44288.6 
226 1 25.3566 30.2187 7.53618 7.9208 -1.43895e+06 -899257 -2.84782e+06 30853.6 395246 143689 
243 1 25.4229 31.8754 9.32466 5.69834 -481118 261157 -741764 -172945 794211 -594698 
245 1 27.1074 31.8355 7.5374 6.77857 -513636 -1.01064e+06 -1.03326e+06 -27396.2 145035 53166.7 
227 1 26.1579 29.327 9.53597 4.84403 -751299 -154607 -125215 433168 -625862 378216 
232 1 27.9229 31.1501 9.73599 6.03254 6587 -137668 395374 -1783.66 -198860 414513 
230 1 29.6938 31.1824 7.44811 1.90067 762199 100238 1.92384e+06 -175672 -38886.7 -19157.5 
231 1 29.7006 29.5063 9.50791 5.32201 245854 778440 1.91786e+06 -265715 321891 -52115.2 
236 1 31.6162 31.0255 9.46792 5.59626 125979 -432442 456080 140319 137836 -467097 
303 1 33.952 30.2677 8.91649 0.773565 -1.28011e+06 -558139 628803 -422881 121788 -274529 
3048 1 35.6379 32.1483 8.84133 0.769882 16744.3 -90368.7 887106 385708 345686 -318508 
3117 1 35.6915 30.314 10.8227 0.369262 155912 705881 1.08516e+06 -334314 41947 -34730 
1497 1 23.7367 35.6236 7.59222 15.663 143579 653863 1.02509e+06 -54671.4 169205 222969 
244 1 23.6584 33.7871 9.44106 16.8778 470435 1.57613e+06 1.07366e+06 110804 -187268 -64906.3 
242 1 25.4173 33.8116 7.56666 0.483702 -193588 -150196 45027.3 -48780.1 256743 194812 
1499 1 25.6977 35.4919 9.48282 0.632601 -75183 -140495 -21195.3 242935 -165184 48671.7 
1501 1 27.3202 35.3931 7.5423 0.166254 -621358 -916909 -390562 184987 133468 114645 
248 1 27.3588 33.6463 9.37712 5.41828 -422110 -299452 -824148 183698 203892 273427 
246 1 29.0031 33.5901 7.57087 7.35432 -742965 -436881 -1.35375e+06 554966 415851 -68674.4 
249 1 31.4417 33.0423 7.73594 6.95653 576726 249265 1.96628e+06 -234026 -164868 -101191 
1503 1 29.1155 35.3707 9.38513 5.87266 -416004 -445287 -405696 -204805 275436 -283741 
1505 1 30.7594 35.4145 7.57098 7.24474 -430845 -947705 -1.50368e+06 597170 -182321 227089 
247 1 29.7386 32.7734 9.77804 5.81067 -405061 866981 -27629.3 -145138 -248387 672860 
252 1 31.6061 34.667 9.76202 6.17321 523498 -302102 -280223 -46651.9 -738074 106948 
250 1 33.2842 34.706 7.53756 2.6813 544802 271723 1.78934e+06 -377459 109119 95059.5 
251 1 33.4548 32.8917 9.41418 5.6415 -449359 802489 1.39335e+06 -64313.7 165038 -9500.56 
256 1 35.1611 34.5764 9.48612 5.54393 -213359 -396284 864389 -12539.7 371466 -129092 
257 1 23.651 23.4971 11.8897 57.4179 961272 928443 1.69702e+06 488733 -17762.3 22631.8 
260 1 23.7813 25.272 13.8086 18.9783 254544 461936 1.45195e+06 -33722.9 174538 543018 
259 1 25.4682 23.4187 13.6221 17.7607 681922 299581 1.03631e+06 -43941.2 540611 -125555 
258 1 26.0496 24.1977 11.251 8.02616 532031 -263147 743989 341916 -176989 370213 
264 1 27.8902 23.992 13.1934 8.47992 313814 292681 862186 -50076.9 31962.5 -249821 
331 1 30.296 23.4784 12.5643 14.9328 376041 -765280 606552 -17893.2 293536 -234092 
336 1 32.1532 25.1016 12.5448 0.250778 -190654 -686947 693013 -752955 99706.4 -167305 
397 1 32.1339 23.2438 14.4381 17.0217 672455 467528 993859 -157974 30217.6 -45521.1 
335 1 32.6722 22.7173 11.9514 15.4663 801817 341731 783897 -4647.3 -382902 55945.7 
3153 1 34.5373 22.7119 13.6875 12.9663 665419 92464.5 713654 -317058 428944 62246.2 
3084 1 34.5978 24.4628 11.8942 6.08198 -354889 -566701 166895 -380409 86830 344940 
398 1 33.9118 25.0277 14.5274 0.416972 -277631 -276628 137886 -399509 104978 49828.6 
273 1 24.3391 25.8703 11.3914 10.9965 -243101 197896 537965 198415 -12894 -62777.5 
276 1 24.3228 27.6444 13.4758 11.8382 557524 802661 1.72694e+06 -343929 -85551.7 18190.2 
274 1 26.181 27.5099 11.5305 0.526191 -193048 -63836 334528 -27575.7 -338422 379941 
277 1 27.9847 25.8232 11.2861 5.5595 -431094 -75919.9 745439 -270530 -28747.1 -309287 
275 1 26.1399 25.8094 13.2226 5.65959 189068 -392946 -247487 -278850 193215 662867 
280 1 27.9839 27.4588 13.2912 0.177429 -260954 281072 458837 -245811 -29125.8 123124 
278 1 29.7058 27.5013 11.4062 6.27544 164951 128837 758202 -315802 -33858.3 -419353 
279 1 29.7478 25.6574 13.2875 6.02214 -91356.4 -1.01955e+06 706190 -82791.8 369001 -421140 
284 1 31.4699 27.414 13.271 5.97383 -379864 -135595 633215 262851 139335 -34027.4 
3171 1 35.6289 26.7273 14.4991 0.244238 -44533.9 -68802 119791 -160943 251431 53411.1 
351 1 33.7759 26.8104 12.695 0.680773 -480141 -27703.5 494433 -597935 -3821.35 155306 
3102 1 35.6467 28.5662 12.7632 0.428164 -151145 194244 405657 18827.9 -481311 2632.96 
305 1 23.841 31.7119 11.1009 14.9581 -166616 390859 951327 -176666 593007 165117 
289 1 24.5081 29.4187 11.5894 9.10338 314087 503016 1.09536e+06 105746 -213774 190553 
292 1 24.5264 31.1698 13.7202 11.0349 322614 304493 1.12192e+06 -14652.5 -68978.5 6118.15 
291 1 26.188 29.2906 13.522 0.239385 -14966.6 507166 523564 12524.8 105458 293520 
296 1 28.0443 31.0616 13.5031 0.264725 -258928 370366 510189 -128497 -294894 219133 
293 1 27.9202 29.3412 11.4667 0.239929 515826 90703.9 267495 74330.1 -135498 42407.9 
290 1 26.2518 31.1839 11.6836 5.44218 -37491.3 251857 775321 -212829 -146229 8301.29 
300 1 31.6459 31.1275 13.3836 0.770322 -253833 -135877 450856 226750 -342978 -294736 
295 1 29.7226 29.2186 13.2757 0.450224 197254 101759 256865 244667 76652.7 195022 
297 1 31.5532 29.3357 11.5279 6.47739 467064 606953 943212 -424948 100143 -6155.74 
294 1 29.7627 31.123 11.6492 0.654276 332832 -155277 160422 -14929.6 -77334.1 341368 
304 1 35.2286 30.9859 13.3507 6.06782 237291 -203841 702712 41256.1 -114114 -370431 
298 1 33.3247 31.0013 11.3265 5.24918 225367 642624 941349 -28648 84388.5 -87722.1 
299 1 33.2816 29.3514 13.3738 6.01413 43469.6 318676 598329 382842 -187164 106317 
1569 1 23.787 35.5078 11.3808 17.2375 298842 1.10221e+06 1.0925e+06 122598 -373853 46712.1 
308 1 23.9631 33.541 13.1096 13.2045 -361272 834455 1.02845e+06 -133047 281170 483920 
306 1 25.4278 33.6211 11.1404 6.13681 -260270 -31668.9 -152479 -187597 91855.2 -75702.4 
1571 1 25.5891 35.3867 13.031 6.22096 -570127 273055 7630.71 -273789 -42308.8 76862.6 
312 1 27.9988 34.6842 13.6033 6.06198 -44093.2 -106002 160292 -435128 42888 313205 
307 1 26.2857 32.9095 13.5177 5.29233 -157115 153171 906913 -245708 -19177.9 -102546 
309 1 28.0114 32.9657 11.5654 5.20105 144432 -96732.4 -358708 -106318 -41242.3 126798 
1573 1 27.3353 35.3548 11.2853 5.22343 -502885 -265765 -587082 350832 -213815 -42874.2 
313 1 31.5967 32.8313 11.3864 0.600273 463906 200103 534371 -159139 -504104 235332 