ITEM: TIMESTEP
7400000
ITEM: NUMBER OF ATOMS
5780
ITEM: BOX BOUNDS pp pp pp
1.9368195083478177e+00 7.0363180491667734e+01
1.9368195083478177e+00 7.0363180491667734e+01
-2.0753960237232221e+00 7.4375396023738759e+01
ITEM: ATOMS id type x y z c_csym c_2[1] c_2[2] c_2[3] c_2[4] c_2[5] c_2[6] 
3 1 23.97 22.0433 -0.160088 15.2943 187235 121227 573673 -547859 -70708 154666 
4 1 22.1088 23.7953 -0.149693 18.5307 694877 1.05166e+06 1.99099e+06 -429467 133985 288513 
2 1 23.8503 23.8317 -2.05489 0.44141 -1.1415e+06 -1.37804e+06 180168 -202581 11025.4 68457.8 
7 1 27.0516 22.0932 -0.222756 14.3469 791631 127684 1.18116e+06 193411 24317.1 -140892 
8 1 25.4454 23.9042 -0.186306 0.541886 -208086 -519528 529209 -36883.9 -226851 205544 
70 1 27.2353 23.8722 1.7104 0.154382 40826 -507345 719303 283956 148393 36595 
11 1 30.7814 21.9851 -0.202437 17.9013 1.36535e+06 544388 1.74723e+06 -32025.3 -2251.02 126208 
12 1 28.9453 23.6753 -0.189255 0.631065 198007 -375744 287515 51701.8 155017 43157.1 
73 1 28.8023 22.0532 1.69789 14.9463 1.0581e+06 11314.6 925846 482617 222136 197945 
16 1 32.6671 23.6478 -0.179254 0.195154 730001 -457087 -5289.84 -251239 79007.6 -354461 
15 1 34.4805 21.7652 -0.131062 20.1012 1.30348e+06 842683 1.21491e+06 -75351.2 262062 -260089 
77 1 32.6327 21.9487 1.6165 16.0824 1.16512e+06 207238 1.33799e+06 -191860 212995 146772 
78 1 34.5269 23.5014 1.72269 0.954315 217644 -466366 953338 83769.6 -25838.4 -3093.65 
13 1 32.7106 22.113 -2.00034 13.4923 1.32041e+06 -79165.9 919401 -336989 84282.5 -395674 
14 1 34.4754 23.7606 -2.03239 0.521531 -859270 -810937 1.1852e+06 -362594 256993 -212857 
19 1 23.6619 25.6463 0.0056707 0.80233 -812888 -702215 383812 -42670.6 -406478 206839 
20 1 21.9761 27.3477 -0.0249394 18.5959 48200.6 1.28069e+06 1.54291e+06 324899 -917.878 -160010 
17 1 22.1161 25.5334 -1.95915 15.2485 -77473.6 636468 669173 -46660.1 -54353 -49111.5 
18 1 23.733 27.3746 -1.86276 0.736186 -734760 -172726 215478 -38717.1 -250879 -102868 
23 1 27.3384 25.617 -0.186942 0.284937 -27842.9 28521.5 -56430.7 -140026 -150201 103492 
24 1 25.4405 27.3367 -0.182152 0.38727 -595632 -226774 -146310 -558380 -454387 69239.5 
86 1 27.3381 27.4455 1.71093 0.278944 -756539 -772001 534034 -172967 148229 45938.4 
22 1 27.3516 27.3154 -2.03181 0.201084 583779 -476295 -526319 -170579 -37345.9 -54708.2 
27 1 30.8601 25.424 -0.139622 0.205507 355835 711229 462438 48847.1 -349518 81252.7 
28 1 29.1322 27.3227 -0.131056 0.210117 247711 -74242.7 285226 -328737 127699 143266 
89 1 28.9862 25.6438 1.6764 0.672837 -18185.7 273192 612163 -227213 -6446.82 281578 
25 1 29.1748 25.5865 -1.99716 0.332331 -509034 -285391 491505 207130 -18406.3 -80766.9 
26 1 30.9798 27.3109 -2.01112 0.288628 -33384.2 301791 373418 -191199 11872.2 4416.74 
32 1 32.7011 27.1978 -0.134167 0.164513 610818 544340 795637 -74943.1 -140895 166945 
31 1 34.4548 25.4115 -0.102679 0.227383 176118 364987 351463 -226472 110875 -131062 
93 1 32.6235 25.4304 1.71236 0.304242 384964 530374 869874 -214093 -127555 133065 
2742 1 36.1052 27.3197 -0.0779719 0.287502 -216251 -104259 721227 34366.6 -160114 86763.6 
35 1 23.6961 29.2038 -0.168175 0.319607 -797891 -162955 311918 34106.7 -85056.9 -206782 
36 1 22.0002 30.9132 -0.122243 17.0986 -235599 400376 1.12241e+06 4987.02 -48055.3 248829 
33 1 22.0232 29.1931 -2.02941 16.0476 17316 1.22993e+06 1.11683e+06 5330.93 94.6193 -47598.3 
39 1 27.2137 29.0121 -0.259008 0.688164 -58249.6 -445916 102317 10752.7 87470.7 -203832 
40 1 25.5305 30.7964 -0.154197 0.299939 -110624 -679586 164922 48880.1 -316725 -127613 
102 1 27.3431 30.7559 1.63793 0.550329 -939362 -169192 -18157 -261771 147768 138822 
37 1 25.4588 29.205 -2.06532 0.523332 -136548 67424.1 -133527 -127140 -80771.5 -121014 
101 1 25.5238 29.1181 1.67864 0.253728 -54134.7 -444696 168541 -394481 17567.4 -19439 
42 1 30.7805 30.8225 -2.02702 0.162385 -58387.5 -414969 380189 -691458 -101887 -384501 
43 1 30.9047 29.1011 -0.0811419 0.179958 533373 410152 728087 -534548 -58890.1 -237499 
44 1 28.9625 30.8679 -0.150365 0.445934 94850.9 124797 -161158 -217418 581903 -571219 
41 1 29.1595 29.1112 -2.06446 0.302064 -272142 -504599 211606 -488418 263819 -19434.7 
106 1 30.9354 30.851 1.73206 0.413528 -172634 32477.6 171744 -211999 258444 -234670 
47 1 34.3858 29.0633 -0.14923 0.159185 129089 413655 539935 109560 -118937 133923 
48 1 32.5644 30.9082 -0.116485 0.307924 -581787 -250870 -44947.2 -243063 62295.4 33772.9 
110 1 34.3047 30.9101 1.70425 0.398778 -270440 -225991 675587 -120326 -280052 -97915.2 
45 1 32.732 29.0928 -2.01048 0.509816 48243.9 318934 731158 -519859 -162120 -46314.5 
46 1 34.4361 30.7975 -2.0389 0.199474 -219995 -500306 637616 -58477.6 81337.3 -94485.3 
2757 1 36.1226 29.0823 -2.06866 0.19058 171692 207748 704736 217928 -161654 49588 
51 1 23.7548 32.5404 -0.174503 0.433164 -9811.59 -143513 658746 129883 -85912.7 183691 
52 1 22.1454 34.3907 -0.183521 14.2574 -173002 882532 888295 -73071.4 364370 42839.1 
50 1 23.6515 34.2276 -2.06128 1.18375 -302911 298922 328594 288531 328360 -47258.5 
49 1 21.9071 32.5496 -2.04618 18.065 -12662.8 567861 1.0278e+06 -39786.7 -109569 169561 
55 1 27.2208 32.7035 -0.154463 0.467361 -641788 6214.3 -37187.6 23242.8 -169333 158199 
56 1 25.5439 34.4978 -0.214501 0.425879 10794.4 125673 1.13177e+06 157023 24334.4 -138811 
117 1 25.6336 32.5599 1.71435 0.665011 83573.2 67622.2 373082 -497611 166988 -73006 
60 1 29.012 34.3521 -0.317901 0.493884 270156 62574.3 713070 -299009 104336 48526.5 
59 1 30.7673 32.5716 -0.20874 0.204071 -468804 -623885 65328.8 -27.9699 189341 286253 
58 1 30.8692 34.2328 -2.02976 0.609304 -208613 93618.8 115949 269368 -14069.3 -4870.17 
121 1 29.0061 32.5627 1.60738 0.593961 289507 -158588 235781 -493027 -107993 -111796 
1361 1 29.058 36.1296 1.68424 0.191146 438656 570458 837503 163102 231341 -76694.2 
64 1 32.5139 34.3032 -0.153238 0.212829 -463794 -287161 216673 -445827 -238632 -204216 
63 1 34.3608 32.6101 -0.266167 0.351832 67656 -32819 446557 -214208 11573.9 75026.3 
1295 1 34.2423 35.9956 -0.156141 0.682278 -222594 -542801 455852 -80346.5 -101197 93683.1 
126 1 34.3929 34.3661 1.73042 0.231184 -187723 -2783.72 648596 228633 52997.4 198979 
2778 1 36.1266 34.3598 -0.192127 0.168777 -576078 -280882 716987 196683 210835 -211146 
66 1 23.934 23.9224 1.84452 0.848115 -900880 -553461 199271 395425 107142 40314.3 
65 1 22.5227 21.919 1.76062 27.4666 898800 940926 1.24422e+06 -61060.6 384253 -118027 
67 1 24.0525 21.8146 3.8326 15.9314 377072 526242 934567 -190473 156199 -146181 
68 1 22.2938 23.6251 3.71256 15.2427 549115 683563 810147 -81511.1 54233.4 553073 
69 1 25.4414 22.1038 1.78456 13.1158 835802 -295967 301972 420546 -78368.6 -180893 
71 1 27.3227 22.0582 3.6545 15.5129 648657 -14718.4 796196 -332471 326433 -114166 
72 1 25.5288 23.8002 3.67261 0.408902 136881 -303592 175954 405395 -138751 -386036 
134 1 27.4214 23.7835 5.56905 0.339562 -377853 -542969 53999 -557366 -11983.4 178940 
74 1 30.8037 23.7304 1.7774 0.262684 906215 387199 931127 -209338 -19067.4 366257 
75 1 30.7667 21.9101 3.49584 16.7428 1.62007e+06 413302 1.57957e+06 -139458 80516.3 184940 
76 1 29.0032 23.7574 3.65857 0.185373 -147204 -18318.4 650475 -593091 210113 -214632 
138 1 30.8353 23.6419 5.46183 0.56171 175511 -409075 936282 360397 168323 479473 
137 1 29.0635 21.8436 5.5153 18.1153 1.0139e+06 718321 1.07182e+06 67565.6 249260 18491.5 
80 1 32.5893 23.6097 3.62197 0.370102 194602 -299909 677688 -112314 94050.3 53971.9 
79 1 34.4281 21.9453 3.80882 16.2089 1.05089e+06 342649 1.24303e+06 -58563.8 448547 -110839 
141 1 32.5732 21.9749 5.5222 16.4066 1.30628e+06 140889 1.60055e+06 284570 266591 217973 
82 1 23.7488 27.4321 1.79241 0.263322 -518163 99963.4 419365 85338.4 106908 -421510 
81 1 22.0521 25.5148 2.04213 15.1155 411490 1.09801e+06 1.50317e+06 146653 -24706.2 -10591.3 
83 1 23.9048 25.6026 3.81139 0.442971 -591165 204756 284672 77203.2 -212530 -216546 
84 1 22.0593 27.4034 3.679 15.826 -2295.3 310565 942770 -632489 164301 -202551 
145 1 22.1032 25.607 5.50568 15.3227 512335 1.65631e+06 1.53649e+06 -353516 357426 -214157 
85 1 25.6015 25.7686 1.76192 0.652307 -179151 -162695 432727 -183797 -146734 81411.1 
87 1 27.324 25.6708 3.63269 0.237872 385720 401292 466713 27596.3 85953.3 -271634 
88 1 25.5518 27.4448 3.71352 0.246317 -420224 -334333 585979 10934 -24162.2 -220956 
150 1 27.3398 27.2758 5.56383 0.274373 154741 197537 461239 -7346.99 88548.2 -207032 
90 1 30.9052 27.1922 1.89893 0.550134 244769 576777 1.03573e+06 111675 -10200.3 -30689.6 
91 1 30.8316 25.4365 3.78807 0.444957 547761 92814.4 448841 -36840.5 90844 323047 
92 1 29.1447 27.3584 3.72571 0.252183 -213908 -62117.3 433218 -352741 92872.2 119011 
94 1 34.3867 27.2275 1.88708 0.320305 -10891.2 114651 482603 137506 -78343.8 -121211 
2811 1 36.1101 25.4471 1.77513 0.354034 -98069.6 493292 387560 -209541 184935 -44381.8 
2814 1 36.094 27.2561 3.70749 0.117029 209950 299282 324198 246814 -202250 -29263.1 
95 1 34.3931 25.2956 3.63795 0.694331 -10405.2 588676 682927 97871.1 211258 210782 
96 1 32.6639 27.2865 3.73406 0.188991 47854.7 581566 399890 12329.6 -24808.7 29101.8 
157 1 32.7023 25.341 5.52488 0.608973 411949 732885 838936 36668.8 -105052 9621.26 
98 1 23.6977 30.966 1.85724 0.64733 -536979 190250 307482 -555772 -297753 -193549 
97 1 22.05 29.2327 1.82215 15.7386 417.685 505377 995815 -212062 -34010.2 -44177.8 
99 1 23.7419 29.0318 3.78368 0.602566 -1.01424e+06 -631151 675367 -322145 -25422.9 -240970 
100 1 21.9959 30.8665 3.72791 17.6917 494878 1.03942e+06 1.07718e+06 -143853 302118 -427221 
103 1 27.3316 29.1198 3.64175 0.177982 -62438.5 -97613.9 461768 -94295.7 155239 -190560 
104 1 25.4883 30.7676 3.55202 0.897391 -128319 105217 501027 48933.6 -112358 -4292.64 
166 1 27.3739 30.8492 5.49204 0.504569 231997 -314620 728444 -28590.2 63994.4 146953 
105 1 29.1471 29.0432 1.82284 0.349023 87728.4 -71602.6 734202 -223954 301369 -92647.4 
107 1 30.9083 29.028 3.81165 0.488758 -472088 -218247 518942 -708416 -168049 197785 
108 1 29.066 30.9431 3.53168 0.85029 117423 110212 556226 -353766 176652 -177824 
2901 1 36.1205 29.1002 5.50036 0.374105 -359068 -31633.9 259054 -593326 -16272.8 -165584 
2829 1 36.08 29.1134 1.85938 0.316962 121965 239665 614772 -89003.2 284846 50157.6 
109 1 32.6884 29.0803 1.7805 0.153872 104517 32763.2 644758 17913.7 -169279 -37863.3 
111 1 34.4032 29.0689 3.68516 0.16143 -344250 125284 268225 -14849.2 -50982.3 -100596 
112 1 32.5316 30.7854 3.67277 0.425643 -59790.2 -110830 515368 -280078 -116889 35900.3 
2832 1 36.0582 30.9642 3.70952 0.580238 -508539 -665232 312233 187369 -80087.3 224069 
114 1 23.7638 34.442 1.83328 0.288555 429505 843188 785752 -379997 -181873 -76721.1 
113 1 21.9333 32.7735 1.80992 16.5485 514832 1.4775e+06 1.67167e+06 -148448 -58020.7 -15008.9 
1353 1 21.8264 36.1397 1.80051 19.4269 1.11348e+06 1.89754e+06 1.68914e+06 108592 -110063 -118137 
115 1 23.7572 32.6271 3.70952 0.286029 -167983 103809 426076 -174631 536966 -277912 
116 1 22.0476 34.454 3.75041 15.886 9662.99 714573 820396 -197875 -7178.76 -112979 
177 1 22.2025 32.5954 5.54485 15.0704 -95278 775293 290337 -221430 365615 167009 
118 1 27.1832 34.4083 1.79851 0.456736 126618 -96680.5 450064 -309887 10931.3 -317266 
119 1 27.2245 32.5759 3.70158 0.42693 -4042.62 -403280 582925 229273 -261309 162767 
120 1 25.5455 34.348 3.66732 0.167028 -228345 194917 640680 80067.1 148150 -155579 
182 1 27.3802 34.3166 5.52705 0.478126 84304.7 435444 241437 -6627.84 41682 -161308 
122 1 30.7946 34.2805 1.84855 0.508396 -281739 -295156 725517 -188759 167926 49787.9 
123 1 30.8254 32.6126 3.69643 0.150101 -239601 -382978 123299 -229909 177394 273815 
124 1 28.9881 34.3234 3.68675 0.215303 -143648 521185 550683 -89318.1 454248 120286 
1363 1 30.82 36.0548 3.69119 0.165382 -105625 96011.6 579580 197117 22144.1 -146142 
1437 1 32.5642 36.1474 5.52878 0.18703 -138960 -331351 73477.7 79498.1 111729 57683.8 
1365 1 32.5213 35.9585 1.7507 0.658044 18133 123615 346224 20795.3 176513 -10734.2 
2847 1 36.1135 32.588 1.82915 0.18837 -77217 -426108 356896 -170253 218370 35389.6 
125 1 32.5857 32.6356 1.75456 0.135878 -397006 -642722 617013 162825 89345.2 -120011 
1367 1 34.3283 36.143 3.66704 0.0884426 -25000.5 -122963 774960 -38760.5 128625 -65214.2 
127 1 34.3584 32.5416 3.73383 0.218743 -565730 -500255 504992 706111 339158 91297.5 
128 1 32.6211 34.3448 3.7074 0.113532 -28933.8 -496565 189705 -13253.7 -63716.5 213385 
2850 1 36.1235 34.3066 3.70531 0.172884 -19612.9 380841 336793 123066 -9560.76 -153564 
130 1 23.9513 23.7262 5.66483 0.193442 -823463 -710146 617114 -1.04796e+06 5813.3 76988 
129 1 22.341 22.0877 5.61417 27.5232 -178389 -238417 443545 -629697 -62941.5 84413.7 
131 1 23.9327 21.9126 7.51062 14.9038 141182 247300 1.01987e+06 266945 -381825 28878.2 
132 1 22.2106 23.6064 7.58156 18.2874 349394 745341 1.52429e+06 154874 78305.7 -464896 
194 1 24.0929 23.7145 9.38402 0.716241 -602396 -429138 -5923.95 -462525 122068 197565 
133 1 25.7287 22.0017 5.65878 15.2344 591804 203521 683948 -101001 -335050 -118779 
135 1 27.526 22.0781 7.37004 13.6324 132682 -311452 63221.5 -210139 335726 174791 
136 1 25.7003 23.7608 7.55532 0.268735 -369228 -550190 -178169 -4190.81 88157.7 246691 
198 1 27.4444 23.8176 9.36448 0.530728 696447 392584 338073 -333772 -385563 71651.3 
197 1 25.7877 21.904 9.16089 13.0088 1.01601e+06 106286 882244 55202.7 160054 497654 
139 1 30.6614 22.0017 7.53978 13.6116 1.66462e+06 695452 1.57766e+06 142604 201410 -101275 
140 1 29.0638 23.9144 7.45305 1.19951 -755463 -791676 127301 -285744 -25020 567804 
142 1 34.4468 23.6341 5.70259 0.300961 -120861 -155423 584317 61321.7 274083 -100890 
144 1 32.6956 23.634 7.55864 0.349883 798832 463516 1.43811e+06 241150 145893 -70978.7 
143 1 34.5053 21.9189 7.66602 18.0766 1.33401e+06 307454 1.71478e+06 -84522.1 -98418 -129429 
146 1 23.8549 27.3492 5.7424 0.573101 -174351 187746 619368 -230244 103373 -80713.3 
147 1 23.8626 25.4917 7.58934 0.373166 22453 484937 242135 -135745 298248 55657.2 
148 1 21.9514 27.2909 7.36776 18.7189 689266 1.38798e+06 1.24797e+06 -48555.2 307649 -17637.7 
209 1 22.237 25.4815 9.38618 16.6726 -81365.1 1.19264e+06 1.20028e+06 -560668 353269 -121325 
149 1 25.6069 25.531 5.58246 0.168844 -190600 61223.5 490896 -356931 -287971 -106301 
151 1 27.3132 25.586 7.58858 0.298904 -631444 -710015 632106 351591 124414 258519 
152 1 25.6588 27.324 7.5361 0.297679 -100412 -326092 286285 -66412.5 -225147 277463 
153 1 29.1295 25.459 5.66951 0.463774 17204.2 -536481 84863.2 -388972 278915 443551 
154 1 30.8822 27.2792 5.59118 0.129901 407844 258383 347737 -302571 71770.8 91745.4 
155 1 30.9696 25.4482 7.58851 0.448765 265606 676346 1.28418e+06 -362073 -117574 236367 
156 1 29.1481 27.2987 7.48577 0.179668 610100 510163 942394 -573199 42959.9 20916.5 
158 1 34.3866 27.2598 5.60757 0.127475 54438.8 432529 247269 25667.9 -179735 45337.8 
2886 1 36.0202 27.2975 7.49247 0.304361 -320193 -188282 972554 426619 -234923 -193728 
159 1 34.381 25.5059 7.55794 0.0941808 -9880.9 -107961 993543 35167.3 1408.53 48253.4 
160 1 32.6689 27.2438 7.52953 0.15655 -118292 243855 879303 -146419 36670.5 77481.3 
161 1 21.9735 29.0526 5.59171 17.8402 620174 1.25275e+06 943056 196353 193958 -12892.7 
162 1 23.9926 30.7899 5.63323 1.13971 -504410 -677102 103909 141368 90188 -210545 
163 1 23.7581 29.1616 7.56024 0.468114 -132609 12736.5 230356 154168 335970 56377.6 
164 1 22.1221 30.9126 7.37737 14.9726 -497751 429061 1.35096e+06 -226060 5874.16 199240 
225 1 22.1145 29.0188 9.39212 15.9561 -645008 508202 1.15971e+06 243020 249652 53558.9 
165 1 25.643 29.0829 5.67694 0.350154 -625173 -562424 255318 312489 -380196 -81908.6 
167 1 27.2659 29.1306 7.50607 0.320495 -402744 -84246.1 544816 -282786 -305634 -52140.6 
168 1 25.5744 30.8476 7.60579 0.218429 -626481 -1.13997e+06 87553.9 569680 -318306 -99308.3 
170 1 30.8371 30.9652 5.66506 0.524014 -337321 -499511 590598 311915 150998 13455.3 
169 1 29.1204 29.1357 5.60186 0.143412 208958 318292 699238 218491 13139.1 -230191 
171 1 30.8348 29.0594 7.50798 0.246878 257457 274071 745848 -89221.6 -53083.2 201928 
172 1 29.0806 30.8219 7.58103 0.113253 187371 178651 646823 52213.7 252625 78341.4 
173 1 32.6134 29.0884 5.60566 0.0998158 224533 360276 445418 -240276 -327349 39184.3 
174 1 34.31 30.9434 5.64961 0.580621 -25262.2 -70842.7 41168.3 -16179.4 66742.1 -68218.1 
175 1 34.4115 28.9833 7.50667 0.449791 -453771 -478793 516199 176134 -67509 -32814.9 
176 1 32.6396 30.9216 7.57632 0.208124 -86435.6 173827 693102 45947.3 53070.2 175928 
2904 1 36.107 30.7858 7.46672 0.19577 -657375 -632039 -7273.5 27575.4 -49096.2 251427 
178 1 23.7996 34.4766 5.60697 0.621193 -758734 -312371 28613 -84506.5 -235860 -570494 
1425 1 21.9604 36.0401 5.70526 15.756 76198.1 1.11089e+06 1.12023e+06 409962 -401835 -360001 
1427 1 23.7311 36.0769 7.41766 0.516693 -237502 201930 3605.54 48142.3 -134911 -329643 
180 1 22.0997 34.2608 7.59772 13.6942 104402 660939 762856 -185856 -213524 211146 
179 1 23.8523 32.4828 7.51949 0.51711 -1.92549e+06 -908614 856.727 -341439 -160559 -231783 
181 1 25.544 32.5663 5.75507 0.893747 -258611 -286580 212045 -573594 312630 -112326 
183 1 27.3282 32.6181 7.53327 0.182085 -197642 133804 869602 -400970 -164180 67249.7 
184 1 25.439 34.3178 7.49618 0.436864 104973 -263141 434417 37636.4 -194354 -142520 
246 1 27.3232 34.4783 9.35825 0.293203 750560 216477 684372 -199168 -80366.6 138388 
1435 1 30.8287 36.1446 7.40785 0.229873 189073 18000.4 436654 250662 -175869 -134007 
1433 1 29.1303 36.1238 5.61846 0.342979 267740 333838 656654 208346 -168902 -18134 
186 1 30.8373 34.3244 5.63478 0.143571 -582675 -640252 350721 220171 307445 -208152 
185 1 29.1491 32.5568 5.59253 0.29155 -874386 -969729 304061 378877 96169.6 -253717 
188 1 29.0713 34.2739 7.40672 0.570359 -135908 165619 279047 -399267 116192 65085.5 
187 1 30.9075 32.5857 7.6166 0.302817 -20541.9 -263512 361872 451918 -3512.66 -285693 
250 1 30.8446 34.4061 9.37279 0.14259 59786.5 -29649 551980 -252801 -55698.8 -213359 
4404 1 36.1462 36.1027 9.3695 0.308785 -241733 -153050 600681 -691010 -45689.1 -171046 
190 1 34.3902 34.325 5.66037 0.227475 99997.1 539921 664503 -227972 34703.2 58947.4 
189 1 32.5805 32.6764 5.58193 0.252113 -844606 -677908 452726 124091 68647.9 214929 
191 1 34.4393 32.5512 7.51832 0.429459 -54907.5 -531086 -44406.5 -54273.9 -88465.7 -146318 
192 1 32.6566 34.4353 7.50606 0.180014 -110327 468320 433726 -168408 -124811 -97426.9 
254 1 34.4243 34.4667 9.26701 0.882908 -310337 -403270 195857 -210426 -180244 146487 
193 1 22.485 21.9139 9.65864 29.5596 359398 655435 1.39409e+06 -134938 -360529 -202086 
195 1 24.2994 21.7883 11.1954 19.4062 353308 362500 468048 -461963 -584414 107860 
196 1 22.4767 23.7055 11.4237 14.0629 390438 338621 976238 -729386 -393527 -137629 
257 1 22.7116 21.916 13.1744 24.2819 876310 136853 1.40415e+06 -288999 -154888 153003 
199 1 27.2794 21.994 11.3946 13.9997 1.32141e+06 143290 1.43204e+06 -165297 101586 -206066 
200 1 25.5337 23.852 11.3683 1.28623 480488 -135365 655664 -7196.87 -483807 48266.4 
262 1 27.3776 23.754 13.1919 0.534381 134522 -445578 597822 149542 -110843 -176538 
201 1 29.0683 21.791 9.4288 18.286 1.6677e+06 1.01728e+06 1.59317e+06 -61145.6 219007 -85944.1 
202 1 30.8012 23.6883 9.47125 0.258356 1.02688e+06 221098 807241 -13324.9 202051 6293.75 
203 1 30.879 21.9988 11.4221 15.6107 468835 -127070 834559 -68283.8 -28694.9 -160896 
204 1 29.0492 23.6743 11.3031 0.320829 -541617 484388 329091 -260445 -283429 55300.3 
266 1 30.6267 23.7812 13.1501 1.07559 754421 145612 315680 -128489 -453590 35374.6 
205 1 32.6011 21.8508 9.60647 18.4249 1.70129e+06 701663 1.57198e+06 -13735.2 221234 -316888 
206 1 34.3899 23.6831 9.51653 0.0868123 176726 12011.7 796662 149141 43262.8 -202025 
208 1 32.6785 23.5938 11.4056 0.607265 -75910.9 -722662 522302 -552518 11049.3 198982 
207 1 34.4257 21.8661 11.4656 18.327 1.30636e+06 632553 1.60935e+06 243437 -203005 -16504.4 
210 1 23.7254 27.332 9.39323 0.456236 -907287 -991802 817810 264299 176302 43212.8 
211 1 23.8532 25.6377 11.3733 0.463011 -924040 -1.05462e+06 611704 -264402 141132 12427.4 
212 1 22.1258 27.3505 11.3807 16.4531 -81794 578902 1.15317e+06 -1861.1 33075 48820.6 
214 1 27.3202 27.388 9.49658 0.251644 -355997 -583732 203765 -18013.1 -78652 262058 
213 1 25.5518 25.6482 9.44651 0.289579 -293705 -240882 -73326.9 -470345 -193461 41140.5 
215 1 27.3566 25.6614 11.2184 0.6559 248959 521377 237064 3689.02 36294.3 398250 
216 1 25.5239 27.3963 11.3356 0.250069 -621829 -544663 26499 -169851 490119 100637 
218 1 30.9856 27.4493 9.45685 0.806043 232076 377871 680752 -359126 343266 89799.1 
217 1 29.1699 25.631 9.4644 0.363617 170610 319919 351514 -57101.6 152065 -141434 
219 1 30.8679 25.4597 11.3681 0.305084 578805 343019 360189 110660 -93825.7 185356 
220 1 29.2583 27.354 11.3168 0.76346 -209313 -401551 -8622.43 -420161 -255447 -13516.4 
2955 1 36.1071 25.4701 9.54087 0.243974 230471 31958.9 434523 -2944.19 -171674 -400955 
222 1 34.2779 27.3522 9.48132 0.567775 132328 40386.5 385355 -55129.4 84343.4 -114750 
221 1 32.6605 25.425 9.54882 0.314039 353168 574097 795820 6664.75 -53307.5 33653.2 
223 1 34.3345 25.4101 11.4982 0.400049 -9129.67 -92556.2 455473 382.477 -235860 -22016.9 
224 1 32.7138 27.302 11.4439 0.380664 245787 239446 395333 134017 292410 -345879 
226 1 23.7206 30.8142 9.49592 0.334497 -622881 -270883 -10154.6 -558159 901.199 107128 
227 1 23.7785 29.1172 11.3344 0.0861529 -773119 -566615 325237 -401657 -107770 311093 
228 1 21.9858 30.9141 11.2868 17.4501 126504 1.10608e+06 1.06403e+06 -229556 128099 16231.7 
230 1 27.3829 30.8131 9.50418 0.342156 5955.86 89358.9 472718 123344 -35819.3 -85891.4 
229 1 25.565 29.0547 9.4852 0.126556 -32624.1 -193309 140636 256833 94824.6 176173 
231 1 27.3266 29.0884 11.4074 0.133895 75947.8 -121893 -41176.8 -379111 -102678 261810 
232 1 25.4762 30.8536 11.3216 0.146046 29638.4 73614.4 320510 -258929 -83186.6 231457 
234 1 30.8538 30.8671 9.56322 0.158954 -9296.13 50355.5 682851 14445.4 -58212.9 121408 
233 1 29.0917 29.0958 9.47149 0.0946999 -168397 -329965 756674 201780 118522 304258 
235 1 30.8942 29.0847 11.4448 0.202356 -612824 -882202 -40204.8 -555470 -69313.1 -56888.2 
236 1 29.1011 30.8482 11.4435 0.192172 129516 316775 374607 -174367 -45865.7 179900 
237 1 32.6701 29.1615 9.42823 0.309779 -527472 -532595 838970 -172651 -116919 70731 
238 1 34.4408 30.8494 9.42546 0.152079 -356579 -726462 409783 -262762 -120621 218703 
239 1 34.4104 29.1252 11.3047 0.331989 -39003.2 52673.8 133264 -422054 66330.7 -268742 
240 1 32.5875 30.8528 11.4317 0.272386 -132956 -111833 120672 -57320.3 -18199.1 151682 
2973 1 36.0887 29.0816 9.43396 0.203872 -584749 -225844 15504.2 89009.3 -300738 -248493 
241 1 21.9301 32.6336 9.45469 18.9163 620543 869272 1.12075e+06 -126102 -103565 446473 
1569 1 21.8634 36.0228 13.1737 16.648 578944 963841 1.01292e+06 151059 138156 18555.8 
242 1 23.764 34.3261 9.43001 0.245491 -485782 468797 212582 168421 -282122 33228.6 
243 1 23.7108 32.6403 11.3905 0.185574 -3343.65 -78468.2 571348 -195436 68586.6 94696.8 
244 1 21.9771 34.4817 11.2459 15.0642 334802 990393 1.20834e+06 -204179 145472 -401614 
245 1 25.4715 32.5525 9.396 0.279824 198160 67679.2 158880 133253 -367937 -68432.5 
247 1 27.2545 32.7145 11.2625 0.305345 612822 698177 881149 -236107 169656 22125 
248 1 25.426 34.5049 11.2947 0.271991 358596 508374 960377 -168641 -175399 7360.81 
310 1 27.345 34.5781 13.2025 0.44304 182386 423810 397596 36795.1 -95168.4 -14923.9 
249 1 29.0975 32.6638 9.49413 0.127063 32100.5 121335 524897 -128302 145289 -164898 
251 1 30.8518 32.6862 11.3955 0.0845263 -243370 72432.9 295050 147357 133952 -51050.1 
252 1 29.0849 34.4184 11.3157 0.153565 258244 33839.8 586851 -48900.1 176624 -83503.3 
318 1 34.6105 34.259 13.1679 1.43031 -222661 -85500.7 67227.5 30534.9 519804 -28250.6 
253 1 32.6021 32.6477 9.57786 0.56623 13013.6 169812 366515 43996.6 -351455 -123241 
2991 1 36.0671 32.6321 9.42791 0.388549 -649173 -211691 203271 -92622.2 80971.9 -186633 
1511 1 34.4032 36.052 11.3202 0.378944 -354544 50863.1 548335 -229142 122924 35059.6 
2994 1 36.114 34.3155 11.3319 0.243509 -949273 -284788 -74808.2 -361212 564963 -256336 
1581 1 32.7075 36.0719 13.2007 0.434006 75109.7 48760 259720 -911547 331659 -322850 
256 1 32.5648 34.5231 11.2799 0.698714 -12206.8 -737403 154974 -405505 -117442 -154435 
255 1 34.392 32.6723 11.2628 0.511694 -179404 371399 168819 -723855 8710.64 -525515 
258 1 23.9325 23.9266 13.3434 1.52637 -1.27203e+06 -536025 -386641 -310428 -547083 -246800 
259 1 23.9182 22.0843 15.3805 17.5161 737965 -139925 1.03431e+06 -225623 -155276 -493503 
260 1 22.0582 23.7085 14.9645 16.1295 554732 820505 1.25115e+06 92219.9 220063 322123 
322 1 23.8832 23.9008 16.9551 0.706752 -470107 -767441 169686 -339414 485195 -60747.3 
261 1 25.5646 22.0115 13.2672 13.6419 996305 448413 334802 -32614.8 -569414 17055 
263 1 27.1443 22.0012 15.1166 13.9527 1.21713e+06 354228 1.3185e+06 -25130.9 -311304 28659.7 
264 1 25.5511 23.8938 15.1696 0.513864 -746994 -707033 45544.8 151788 -12452.4 -46674.2 
265 1 28.9977 21.8277 13.3141 19.2108 1.38001e+06 695013 1.51025e+06 42399.7 -251161 -6825.25 
267 1 30.6645 22.01 15.185 16.5424 1.07098e+06 534245 1.37592e+06 148700 -295014 -22884.7 
268 1 28.9104 23.7637 15.2058 0.302138 363147 388715 1.03094e+06 337588 34938.8 -22280 
269 1 32.523 21.954 13.2677 17.2616 1.38602e+06 529259 1.05251e+06 -145132 -354700 220453 
270 1 34.3514 23.7351 13.3588 0.158264 269382 -83901 601352 -324764 -88287.8 335160 
3012 1 36.1291 23.7444 15.279 0.214283 -125301 -286306 245485 -27110.3 10053.4 314770 
272 1 32.4287 23.8282 15.0763 0.684617 533689 -419720 476043 224387 213121 596094 
271 1 34.2603 21.9766 15.2107 17.4831 1.55127e+06 504961 1.0974e+06 -51550 -125292 -88702.5 
333 1 32.4137 22.0861 17.0109 14.519 923089 182575 1.50284e+06 18036.2 71943.7 -58067.6 
3081 1 36.1016 21.9438 17.0215 17.35 891685 48928.3 1.26125e+06 186422 -76764.8 54475.8 
273 1 22.1352 25.5892 13.3129 16.0966 43523.9 822253 1.21662e+06 -22050.5 -76539.2 273156 
338 1 23.8116 27.2151 16.9649 0.973595 -149110 -599363 -377216 -168271 -308143 174611 
337 1 21.9851 25.4515 16.8892 14.2498 219493 1.34055e+06 1.24379e+06 162224 171298 276220 
274 1 23.9241 27.3364 13.2195 0.42102 -239767 225757 255537 -608840 -5353.42 -6319.01 
276 1 22.0475 27.41 15.1894 15.7133 -96588.1 621637 1.23345e+06 -631514 -354118 188751 
275 1 23.8688 25.6035 15.184 0.268963 -322773 -857646 -554734 314970 -54838.9 -379721 
278 1 27.3291 27.502 13.2782 0.649424 -470505 -870978 461985 -88787.3 170985 354626 
277 1 25.8182 25.5935 13.2906 1.35706 -20387.2 -521311 48385.1 -85652.3 -160927 -117196 
279 1 27.3198 25.633 15.2125 0.180375 -1.21222e+06 -455558 -234526 130371 47032.4 112020 
280 1 25.6154 27.3329 15.1194 0.347084 -354962 -424129 247432 -159623 184282 156610 
281 1 28.9419 25.676 13.2615 0.792899 -23896.8 96931.3 838977 -27313.7 -34698.8 75146.2 
282 1 30.8403 27.2843 13.2271 0.235744 -318194 -344720 213565 177856 -329775 382165 
284 1 29.0504 27.3426 15.2773 0.475681 -186537 63758.1 279147 -379676 75557.7 53090.4 
283 1 30.7688 25.5955 15.1479 0.135559 -307294 108746 530721 575677 349276 133485 
286 1 34.4409 27.1803 13.3623 0.419048 -123646 -322581 459008 369094 -166502 -367323 
3027 1 36.0657 25.4544 13.3926 0.367035 -545713 -462799 556747 371231 -213443 83732.6 
285 1 32.5027 25.4958 13.3914 0.466126 40155.1 -168153 -13803.6 251153 330791 581797 
288 1 32.5966 27.2994 15.2038 0.0909139 -127978 -194258 450910 -250555 -17485.8 3395.67 
287 1 34.3735 25.5039 15.3168 0.337912 185923 114910 343865 249468 390312 -181625 
289 1 21.9818 29.0507 13.2777 18.2723 761539 1.47855e+06 1.37861e+06 -123553 -49810.9 -36949.9 
290 1 23.6871 30.9152 13.2395 0.219053 -145334 342708 777322 505716 93596.6 40779.2 
292 1 22.0634 30.8548 15.2038 15.8242 245406 929271 1.0891e+06 417133 -14777.1 75227.8 
291 1 23.6715 29.0801 15.3061 0.774505 -1.02416e+06 -414275 488741 -354279 -225439 201499 
294 1 27.2422 30.945 13.2245 0.262156 199547 90438.1 514438 22693.4 -189838 -64266.7 
293 1 25.5083 29.1629 13.276 0.152577 -251128 -460303 417721 -200162 -406080 122330 
295 1 27.158 29.2403 15.1494 0.635253 -173875 -385977 599530 -479791 -330218 -216898 
296 1 25.4152 30.9119 15.2255 0.193208 175012 -69871.2 777814 582153 -142314 -71069 
297 1 29.148 29.1085 13.2535 0.276273 -170663 -244557 146033 -410502 -11354.3 -136794 
298 1 30.9036 30.8651 13.2528 0.12744 -97553.2 75415.3 -13560.6 -270109 73908 -292389 
299 1 30.8249 29.0749 15.2036 0.149596 311118 413147 773943 28725.3 -48378.1 244159 
300 1 28.9671 30.8098 15.08 0.748165 181588 -270893 406437 -187530 -41387 -158426 
3045 1 36.0903 29.0261 13.2571 0.359745 -607861 -704376 573234 838871 50359.2 -16191.7 
303 1 34.3497 28.9881 15.108 0.373002 -176543 -264538 467400 -364099 122443 -26571.3 
301 1 32.654 29.0176 13.2311 0.178101 144706 12063.2 97613.9 -141137 -437167 -88027.5 
302 1 34.4341 30.7991 13.2447 0.142718 -215469 -267370 661145 -285322 -139535 -222416 
304 1 32.6432 30.8988 15.1298 0.237169 162617 509435 1.07878e+06 -71790 -66881.8 -19809.3 
1571 1 23.7153 36.0662 15.2619 0.616302 -968896 -866842 980355 145026 7559.17 99677.8 
305 1 21.9653 32.5761 13.2701 16.6738 41477.9 1.09077e+06 1.51641e+06 330305 99724.9 -119508 
306 1 23.7121 34.3841 13.2414 0.248347 -330375 132494 442279 163853 124099 34191.1 
369 1 22.0271 32.7808 16.9547 13.5908 -591320 551840 1.18281e+06 -346060 -47649.6 -81679 
308 1 21.9393 34.4911 15.084 14.8078 -23552.7 585553 660163 -431870 94207.8 330427 
307 1 23.8069 32.7663 15.1185 0.460607 -409600 -188973 82051.6 -39471.9 64684.8 9949.32 
309 1 25.5786 32.7273 13.2732 0.321443 158336 480861 724969 553493 16476.6 -81018.9 
312 1 25.5016 34.504 15.1406 0.263804 -437298 -213950 585225 157690 -82549.4 -85941.4 
374 1 27.2298 34.3729 17.0046 0.268492 216259 173900 478117 -44032.3 -49709.5 -195086 
311 1 27.2885 32.6845 15.1399 0.124752 127202 295376 211418 104930 -505662 -305452 
377 1 29.0651 32.6285 16.8488 0.750765 -151653 676109 403821 -135874 -153762 -225748 