ITEM: TIMESTEP
15600000
ITEM: NUMBER OF ATOMS
5780
ITEM: BOX BOUNDS pp pp pp
3.3098481098246575e+00 6.8990151890190873e+01
3.3098481098246575e+00 6.8990151890190873e+01
-5.3385805235577442e+00 7.7638580523573282e+01
ITEM: ATOMS id type x y z c_csym c_2[1] c_2[2] c_2[3] c_2[4] c_2[5] c_2[6] 
3 1 24.0468 21.4229 -4.41757 18.9553 344698 659524 691420 56770.4 -315036 -115357 
7 1 27.6337 21.4223 -4.60877 13.9238 1.44248e+06 325564 1.62401e+06 132938 -100282 52350.8 
69 1 25.8156 21.509 -2.62765 12.824 1.20731e+06 62365 1.31899e+06 152905 -615020 211790 
65 1 22.3803 21.5663 -2.49181 45.7301 710106 -182573 248524 -8859.93 32440.3 -402493 
4 1 22.2761 23.2249 -4.31501 15.7313 315433 695542 1.08665e+06 -55062 -336977 174256 
66 1 24.0881 23.3101 -2.65235 5.63069 -817537 -609932 -114877 -253066 -92934.6 -294196 
19 1 23.9921 25.0763 -4.45659 6.17373 278734 -98424.7 229910 164078 218812 498544 
81 1 22.2589 25.1283 -2.57705 14.2617 -98813.2 -73450.7 592395 -140940 -32009.9 25733.1 
73 1 28.2459 21.8832 -2.0289 11.3867 860851 550361 1.56619e+06 -378671 -235432 171471 
8 1 25.871 23.249 -4.44714 6.24221 319928 225082 125478 21582.6 140167 369721 
70 1 26.5259 23.8443 -2.06423 5.76691 -101594 -148534 88573.6 -569821 -43027.3 -158574 
12 1 28.2718 23.7355 -3.90648 5.64406 60160 102042 388461 -389791 -92249.7 -352633 
77 1 31.6944 21.803 -2.07281 17.0195 681918 210733 790159 -142424 -349301 46420.3 
11 1 30.1415 21.9536 -3.98645 10.2992 1.09054e+06 305156 1.01671e+06 -296325 -434648 -22031.3 
74 1 29.9545 23.6213 -2.02862 0.331996 228776 -74101.3 678655 12399.7 -212895 173973 
16 1 31.8552 23.6753 -3.85473 0.586008 845004 373984 1.11671e+06 -139598 -315448 44094.2 
2793 1 35.0527 21.6121 -1.86412 15.9998 836168 330241 1.0613e+06 68625.5 -159084 -220108 
15 1 33.5216 21.7876 -3.85039 14.2953 1.14819e+06 102075 1.2434e+06 -20164.5 -40258 -308750 
78 1 33.4675 23.5095 -1.9636 0.283359 -265625 -77220.2 -110229 -284585 -293367 -236701 
2724 1 35.1031 23.6563 -3.96008 0.437607 146135 -247864 527577 28951.7 -258612 -301136 
20 1 22.2155 26.7952 -4.3813 14.4955 184056 557189 555493 327857 335751 299449 
82 1 22.8193 27.3593 -1.9247 9.04662 181738 -441853 1.02846e+06 -209453 -152728 -184900 
24 1 24.6736 27.4728 -3.81795 5.43959 -122987 -203455 -201045 -323348 2582.78 -175255 
85 1 24.6071 25.5955 -1.98388 6.21258 -130614 -472601 187113 -147659 -298535 -130932 
89 1 28.2947 25.4834 -2.13147 0.865315 -182653 -216778 -46943 -364628 -112425 117905 
23 1 26.4939 25.7081 -3.79038 6.37652 -238525 -330105 -374452 -341217 -214030 29675.5 
86 1 26.3831 27.3992 -1.93793 0.258777 75922.1 -292872 -376919 -170141 103361 -12796.3 
28 1 28.2038 27.3692 -3.79382 0.182298 -240962 -483108 246579 -677366 217445 -286085 
93 1 31.7555 25.491 -2.04569 0.327057 201591 -249572 574993 433485 -295999 -406659 
27 1 30.0085 25.5078 -3.96218 0.300012 -81305.1 227699 -180666 -226210 223779 280945 
90 1 30.1638 27.2247 -1.93202 0.703932 -573473 -783193 50172.6 307661 -58.589 -341297 
32 1 31.8333 27.3142 -3.88469 0.259647 74649.1 -225944 223453 -192535 123354 -66592.7 
2811 1 35.2204 25.2446 -2.0256 0.481195 -26553.3 149260 482778 563535 -358792 -400869 
31 1 33.6439 25.6252 -4.04075 1.51618 -363289 -347024 540781 -74154.4 -41283.4 -26399 
94 1 33.6162 27.1565 -1.97161 0.522392 -48932.4 -103370 463702 -242193 -198087 26038.8 
2742 1 35.3272 27.232 -4.11266 0.312902 -602779 -599922 681529 -663667 -177280 -297463 
101 1 24.5768 29.1267 -1.95612 5.54771 -791691 -88781.5 260067 -73223.1 88276.5 -105151 
35 1 22.7198 29.1834 -3.77714 9.69709 481154 837452 163257 -50493.1 39709.3 167532 
36 1 22.3364 31.7578 -3.01706 13.5045 -181051 1.40806e+06 923505 -246088 -519636 103936 
40 1 24.6508 30.9808 -3.66914 5.5755 115244 266149 -265.902 215442 -54977.2 -18477 
98 1 23.9762 31.599 -1.24278 5.32238 -690064 291127 350284 192535 -168003 66751.4 
97 1 22.2983 29.7582 -1.35747 15.1933 -68414.1 909129 1.15645e+06 -17049.5 200301 -146708 
105 1 28.3082 29.0009 -1.90486 0.446824 170759 161517 -409279 -319648 -131403 -327630 
39 1 26.3978 29.1535 -3.72608 0.147531 -386910 -718439 29617 -512886 144820 14317.1 
102 1 26.3507 30.8958 -1.85594 5.72556 343026 -114510 -114247 -161111 -164865 38419.4 
44 1 28.1703 30.8512 -3.73606 0.214268 -392736 -159850 838497 -188822 -126490 -163060 
109 1 31.8135 29.0123 -2.03794 0.158834 337603 370331 759782 -320684 144961 -284451 
43 1 29.9296 29.1344 -3.79654 0.330628 181552 425927 656167 -29991 290596 -128654 
106 1 30.0765 30.8783 -1.95095 0.440036 404337 -19500.6 238858 -127426 -89595 28572.8 
48 1 31.8576 30.8824 -3.96685 0.614147 25240.2 11125.1 555118 -482902 -58672.6 47584.1 
2829 1 35.305 28.9397 -2.19554 0.458558 -94790.3 261433 70614.6 53516 14644.6 -90898.5 
47 1 33.5954 28.9878 -3.93233 0.228595 -500589 9347.71 453431 -303021 -411513 -67601.2 
2760 1 35.2852 30.805 -4.02352 0.363009 -354128 -751308 -251319 86803 -69278.1 209672 
110 1 33.6094 30.8455 -2.09135 0.514826 104196 -362409 53998.1 -253722 -60315.3 -64230.2 
2847 1 35.4563 32.3962 -2.10827 0.291391 -665849 -299013 392102 -361420 142701 -194157 
51 1 24.1314 33.4439 -3.10358 5.39141 -296337 224889 136193 -36245.4 -17448.7 -52829.6 
52 1 22.3949 35.1825 -2.89005 17.4235 201402 1.04082e+06 1.35094e+06 -24726.1 -21654.6 -193019 
50 1 24.087 35.2563 -4.90942 5.19737 -232588 -421289 753353 -283474 -184719 51699.1 
49 1 22.3004 33.584 -4.8443 14.298 -132189 856650 814416 -328233 -233525 173055 
121 1 28.2692 32.6848 -1.82934 5.6758 -346888 -355204 4770.28 -89224.5 145449 91003.9 
55 1 26.522 32.7382 -3.66095 5.72296 -130683 -275675 156869 -37871 -221978 43890.4 
56 1 26.0136 35.1245 -3.00531 5.53276 -605208 -55514.8 387593 260487 323015 43394.9 
60 1 28.2745 34.4892 -3.52185 5.66242 -886706 -587122 239124 -17418.6 -220484 181555 
125 1 31.8269 32.625 -1.89039 0.489309 -588112 -426107 471307 -412484 140228 62657.6 
59 1 29.9199 32.5438 -3.77362 0.494439 226821 -121231 322003 -413590 188022 348962 
122 1 30.0685 34.327 -1.80769 6.06787 -281447 161425 699882 -59484.6 -216740 80436.1 
64 1 31.7343 34.2548 -3.85311 0.435207 -745460 -502204 -308095 214060 91452.9 -77051.2 
1291 1 30.162 36.1077 -3.62877 5.55873 -133758 -311678 595442 60902.2 277011 3331.97 
1365 1 32.0014 36.0431 -1.80599 5.68614 -550903 74372.1 586523 -167558 198489 -123905 
63 1 33.5243 32.5457 -3.83789 0.29733 -735633 -1.15926e+06 -286477 -266591 -119615 376058 
2778 1 35.4078 34.1928 -3.98523 0.344466 -75342.8 -655785 88854.9 -146256 76272.8 362864 
126 1 33.6306 34.1699 -1.92781 0.125936 -59520.4 -242362 575936 -374632 -107133 -176040 
1295 1 33.5476 35.9519 -3.82392 0.296817 -121211 71286.6 27113.4 18916.9 454527 -265799 
4242 1 35.5098 35.8764 -2.02406 0.170403 -384308 -319242 589247 -129342 -117599 40380.9 
67 1 24.0337 21.4981 -0.572446 22.3278 424199 109671 1.37595e+06 -103294 -424742 -124976 
133 1 24.7972 21.8773 1.76524 15.3972 -381578 202878 422767 305861 475116 -104225 
68 1 22.3106 23.2508 -0.907512 23.1759 123656 -637545 357707 128861 195132 -627110 
130 1 23.0474 23.4374 1.65266 10.7923 53745.1 332424 886492 217826 172110 290096 
72 1 24.6946 23.8112 -0.262832 5.72226 163124 -201257 471262 -394970 219399 137937 
71 1 26.4541 21.9051 -0.141884 11.1899 666310 817404 926231 -72260.6 -152650 -124474 
137 1 28.1216 22.083 1.66907 13.7267 287653 -118796 837526 841105 48787.4 56029 
134 1 26.4906 23.7037 1.78983 0.256955 -568796 -414396 1.04369e+06 367352 549582 -93048.7 
76 1 28.1632 23.8757 -0.131172 0.890726 166037 -64767.6 250175 44908.5 108047 149236 
141 1 31.62 21.8182 1.73396 16.8277 539295 -30408.2 616272 242897 234605 -14827.3 
75 1 29.8903 21.9646 -0.118953 15.1734 913408 226824 736548 -340317 -135234 168720 
138 1 30.1445 23.7339 1.7703 0.919919 -353072 -987247 -310752 111364 -49480.7 -33132.5 
80 1 31.7368 23.5799 -0.155684 0.221054 -198372 -43021.3 115629 -188889 374370 -101752 
2865 1 34.97 21.6294 1.8477 15.856 872857 46231.7 1.27408e+06 97114.6 225621 17980 
79 1 33.2675 21.6212 -0.0871437 18.2527 675062 343232 821281 72726.4 248746 -25741.1 
2796 1 35.0618 23.3987 -0.0414885 0.507676 -523638 -185732 -338146 247143 -130701 -89400.6 
142 1 33.4565 23.5344 1.74678 0.250642 -206967 -610598 388982 675082 361881 -22481.6 
149 1 24.5386 25.4172 1.8885 5.83743 618084 862666 953790 118443 -169988 -24651 
83 1 22.8498 25.4794 -0.0319933 9.33684 271271 497267 1.17081e+06 -76422 -107749 -126191 
145 1 22.2472 26.0851 2.42174 13.9231 264170 1.10777e+06 1.25346e+06 121724 51685.1 275602 
84 1 22.3339 28.0056 0.567565 14.4234 259260 1.51498e+06 1.71254e+06 -252126 -18248.4 -38576.3 
146 1 24.0554 27.9602 2.5098 6.21614 360948 58917.8 205356 -210878 276.566 162815 
88 1 24.6377 27.2877 -0.0814045 5.90129 -165850 417990 943334 -14704.6 116963 -174432 
153 1 28.2469 25.3868 1.87532 0.63428 143030 337257 58071.7 -99547.9 -7880.2 -27279 
87 1 26.4377 25.5996 -0.176891 0.372537 -245576 -399980 942292 30020.3 -178903 -118148 
150 1 26.4494 27.2655 1.78674 5.69593 837191 480579 1.34729e+06 -168151 31962.3 -187429 
92 1 28.2847 27.169 -0.120339 0.43962 -49347.2 156903 929175 -299797 65838.3 79044.2 
157 1 31.9171 25.3575 1.75307 0.527643 -590872 -582174 164444 -242992 141439 48721.6 
91 1 29.9998 25.486 -0.0240148 0.493516 -512798 -375179 708415 -186897 34033.5 349187 
154 1 30.1423 27.2972 1.79989 0.712417 216560 -188556 -340191 -239654 120177 -587572 
96 1 31.8384 27.074 -0.122147 0.470893 -871038 -260409 -315259 269649 -348481 -178040 
2883 1 35.294 25.3337 1.76251 0.480417 46982.7 163307 442482 216849 -192783 -311634 
95 1 33.5201 25.3815 -0.16007 0.208088 -379029 -526581 -211436 493627 278525 -129698 
2814 1 35.3856 27.1816 -0.175821 0.406017 -190848 420066 459022 12997.4 -376658 24427.2 
158 1 33.6277 27.1465 1.64727 0.58971 -206133 -87452.4 640103 12076.6 -237835 -125312 
161 1 22.3039 29.8235 2.62154 17.6096 437945 1.33012e+06 1.45682e+06 -194287 -69808.4 227378 
99 1 24.0653 29.7811 0.596423 5.61468 -884406 60786.3 893097 210939 24515.3 -118482 
100 1 22.3813 31.4861 0.756668 16.126 38393.8 992530 1.25645e+06 289309 110528 483624 
162 1 24.1788 31.4055 2.57806 0.261201 -678493 180355 582806 -163141 -97323.2 -61288 
169 1 28.2438 28.9317 1.81439 5.59577 52687.5 -649241 1.13196e+06 -224372 106141 -162231 
103 1 26.3199 29.1361 -0.118412 5.8322 72398.5 -20662.7 338129 -406828 93255.7 -103562 
104 1 25.8689 31.522 0.588818 5.14152 237351 -530681 61743.2 -357511 107032 -47556.8 
165 1 25.8533 29.6235 2.412 5.33801 -84124.4 -559952 34401.4 11659.3 22842.3 -194999 
166 1 27.7933 31.2373 2.4031 5.28102 91880.2 -523370 869890 384374 253529 -360751 
108 1 28.2787 30.6989 -0.0985194 6.03471 97443.6 52425.9 443209 -379450 -28829.7 -326093 
173 1 31.8946 28.9391 1.76442 0.213086 -1.04723e+06 -950495 414842 -478531 302219 129440 
107 1 30.0574 28.9235 -0.173486 0.398793 -236806 -331880 -179085 -102010 -194218 -441517 
170 1 30.0982 30.5703 1.79721 5.11615 -664872 -113973 182943 256426 447545 134647 
112 1 31.7967 30.7074 0.0221167 0.498587 -480948 -120595 31349 -37226.8 -86287.8 58279.9 
123 1 30.0202 32.4227 0.087069 5.6585 8343.85 -542471 841212 80852 -23900 -217794 
189 1 31.9761 32.3795 1.9177 5.80611 -296825 -1.32826e+06 313099 474517 45482.7 17621.2 
2901 1 35.4419 28.8637 1.85917 0.485338 16283.3 -19790.4 629815 -553221 -296090 -104684 
111 1 33.6697 29.0013 -0.130766 0.386862 234882 249676 653994 29174.6 163079 -174368 
174 1 33.5614 30.6364 1.79758 0.626341 -582995 -706982 15672.3 35682.8 34773.5 -183002 
2832 1 35.5119 30.5826 -0.190949 0.392927 -21829.5 154523 1.08233e+06 33852.1 -111385 -29268.6 
2919 1 35.5663 32.3488 1.868 0.463056 174200 266164 371001 329579 85655.8 -173434 
127 1 33.6956 32.3153 -0.117874 0.522786 383795 88781.7 365536 -228764 10838 -140293 
114 1 24.2538 35.156 -1.03071 0.285971 -78890.2 209169 370719 346247 333466 335369 
113 1 22.4045 33.4077 -0.961272 17.1258 193061 610694 910782 285342 -299107 -348780 
115 1 24.1143 33.2995 0.854375 0.52574 -816307 -454623 667717 624624 -132900 122022 
116 1 22.6174 35.0683 0.833656 15.4751 -340451 -29642 751813 513514 255856 -62617.4 
178 1 24.3881 34.9955 2.82468 0.254291 -203484 451192 605718 -519169 46921.3 -25076 
177 1 22.5361 33.3749 2.85173 16.9642 481542 1.71546e+06 1.68197e+06 -170629 176923 79482.3 
117 1 25.9247 33.2438 -1.17428 5.97622 36173 -379567 305841 -48588.8 -167577 110954 
118 1 27.7073 34.9847 -1.05355 5.83019 119123 -698309 -87838.7 384842 250217 41889.9 
181 1 26.0804 32.9709 2.63901 0.467049 402221 459972 386747 57555.7 80018.3 -104251 
119 1 27.6707 33.173 0.629353 5.2317 -842322 -562514 294829 67544.8 204034 212032 
120 1 26.0465 34.8704 0.8823 0.319936 9177.78 -40264.4 544373 505344 465439 -127782 
182 1 28.0382 34.7783 2.73721 0.707202 241408 420633 793302 671643 356937 -51117 
185 1 29.6179 32.9793 2.69099 6.52521 -3413 -405702 639322 133507 203400 431814 
124 1 29.5839 34.7456 0.779288 6.1452 -321080 59393.5 685690 178382 315295 -227308 
186 1 31.429 34.6882 2.54067 5.73264 -212563 -510813 11242 -78149.9 -17824 -45461.5 
128 1 31.889 34.1672 0.0997405 5.81503 -196594 121989 -63764.3 -4467.31 -105699 -281941 
2850 1 35.4397 34.1279 -0.0817469 0.157027 -165941 169695 636431 437319 8477.5 4610.28 
190 1 33.6909 34.1145 1.79218 6.06516 -923832 -992320 50660 -275096 34892.3 -93561.2 
4323 1 35.5532 35.7924 1.95087 5.67801 -1.29754e+06 -371915 510909 182240 -125136 75933.1 
1367 1 33.7799 35.8567 0.0209273 6.05354 -536340 -866410 152571 44508 -15017.3 15061.3 
2937 1 34.9735 21.4835 5.58618 17.2422 1.33752e+06 428705 948867 268966 174173 -284429 
131 1 23.3127 21.9002 3.61316 27.1687 217930 -81436.6 377442 -149741 318728 225769 
129 1 22.5776 24.2515 3.9279 13.526 -469127 -108773 -417303 580896 254371 -362302 
193 1 22.5273 22.7394 5.95376 42.0874 49174.4 942652 723339 52138.4 -385258 21009.8 
194 1 24.2711 24.4788 5.98595 0.911422 -786839 -594714 42141.4 -217290 380544 -92942.1 
197 1 24.8667 22.1047 5.63206 14.7715 123781 -273359 81207.7 75131.6 210035 -63259 
136 1 24.8731 23.7448 3.69148 5.71755 -747303 -307313 9733.84 -91000.4 392296 301007 
201 1 28.3481 21.8964 5.5235 17.3585 939274 557624 766194 52966 66824.2 237664 
135 1 26.5847 21.893 3.72953 16.508 1.35344e+06 441814 1.31349e+06 -6716.65 43363.7 98938.7 
198 1 26.6757 23.8391 5.60709 5.07639 -119065 -682945 346719 -483320 246280 657589 
140 1 28.3032 23.7307 3.72302 0.228638 9642.04 -740206 189681 -55280.5 231306 315175 
205 1 31.6449 21.694 5.50508 17.9984 1.10026e+06 482031 874515 -372404 -22359.9 157230 
139 1 29.9446 21.9506 3.64694 15.8241 20007.3 -356273 855921 -415691 336913 113549 
202 1 30.0432 23.8019 5.67406 0.783336 -97746.8 -130519 122382 24051.7 -24757.2 -122799 
144 1 31.6308 23.5385 3.70773 0.522247 -1.04183e+06 -1.02934e+06 284557 -163892 -384661 58707 
143 1 33.3122 21.7741 3.68257 16.1277 253119 106052 504496 144209 335218 -137713 
2868 1 35.2162 23.3809 3.74294 0.316634 40593.2 -160540 760308 -226275 42698.2 -392896 
206 1 33.4142 23.442 5.59742 0.2121 -189332 -519775 -171470 194889 57455.8 67082.2 
2955 1 35.331 25.1976 5.48777 0.4182 -155525 -14855.5 59587.2 -381057 136612 -6585.62 
132 1 22.0901 25.5662 5.82754 25.9522 -49569.3 360954 627411 -438263 42790.2 -777064 
147 1 24.2046 26.3176 4.23997 4.4471 -44937.4 316506 -596001 492028 16082.2 378508 
148 1 22.1992 27.7437 4.38443 16.7715 322027 1.54869e+06 1.42228e+06 278177 168190 -185958 
209 1 23.6429 27.1943 6.48781 5.83896 -870964 -518006 557224 -956716 -45632.9 -335719 
151 1 26.571 25.6216 3.81771 5.61462 -128076 62327.7 294818 -176473 266261 169177 
217 1 28.3905 25.5397 5.60213 5.67339 -502118 -747282 494856 -282400 -37737.9 248630 
152 1 26.0463 28.079 4.36839 2.01637 -938500 -251249 529145 -180351 -381375 390397 
213 1 25.9121 26.2462 6.12751 0.393758 -65102.7 -64259.1 121938 -357947 -29495.1 -7071.41 
214 1 27.7262 27.9876 6.19831 0.271866 -205263 51063.8 -135750 -342272 -242128 495630 
156 1 28.4038 27.2059 3.7459 5.64401 -669521 -1.1033e+06 377017 -482601 96938.7 157639 
221 1 31.8932 25.4018 5.61755 0.475955 -149763 -40425.5 227082 -400094 243316 445327 
155 1 30.0576 25.4082 3.61242 0.507823 -672283 -598374 431440 -29898.8 -61375.5 -125907 
218 1 30.0729 27.3008 5.64482 6.3303 -275473 9103.18 376491 -448464 -249000 61944.8 
160 1 31.8816 27.0359 3.74966 0.624683 -113002 -302996 746194 261391 -301888 210608 
171 1 30.2043 28.7768 3.64232 6.38809 -475731 -1.05789e+06 -400839 -218127 168115 -290553 
159 1 33.5391 25.2087 3.73506 0.440453 -259852 234517 347150 265897 -80901.7 7381.87 
2886 1 35.2908 26.9995 3.64466 0.223358 246501 -451505 273826 211879 -133717 -211187 
222 1 33.6474 27.1535 5.62482 0.378609 -112222 -273396 268488 -658780 -197185 128285 
2973 1 35.4501 28.7261 5.51288 0.490774 -547340 -278339 -62375.3 -310473 -536024 200040 
225 1 22.6483 29.5152 6.47507 13.4512 630518 1.17085e+06 928003 4002.04 304236 266066 
163 1 24.0785 29.4379 4.43613 1.95707 -808139 306109 535180 392698 224100 -659953 
164 1 22.6214 31.4112 4.67339 16.9082 324159 1.05744e+06 1.63463e+06 -54116.1 95063.5 -48815.5 
226 1 24.5181 31.2008 6.4634 5.15864 -620311 -7530.75 -145881 -137747 782380 211625 
210 1 25.2936 28.8596 6.74711 6.14765 390393 -35272.2 1.02791e+06 -805215 39329.5 -174476 
167 1 27.8707 29.5535 4.36372 2.9429 -692693 -701244 87705.3 -308280 45351.8 295882 
168 1 25.9451 31.0375 4.41455 4.49064 -219987 117051 14722.7 118054 -173481 -296526 
229 1 27.124 30.6027 6.57525 4.92606 725894 732146 1.3517e+06 -212669 -169700 -240214 
230 1 28.9813 32.214 6.73398 5.5109 462184 452183 1.13236e+06 -533872 -279686 58267.7 
237 1 31.8964 29.0244 5.60676 5.81238 -357548 -47539.5 313302 -459291 133768 397116 
172 1 29.8132 31.2097 4.36369 4.71553 -745419 -324088 392832 185795 459582 643073 
234 1 31.3877 31.4072 6.44511 1.26517 -714062 -77278.5 -287438 -304429 -299481 196727 
233 1 29.5504 29.6607 6.23076 0.404371 -86264.4 -435971 110998 -303944 -114097 389834 
176 1 31.969 30.6349 3.70395 6.4112 -1.39399e+06 -596345 -62512 450861 573645 302211 
175 1 33.6353 28.862 3.76552 0.28702 -482996 -374012 393092 118510 30828.9 266373 
238 1 33.6543 30.7128 5.62019 5.53459 -190125 -425555 164127 -459790 235524 -131276 
2904 1 35.4197 30.5221 3.77108 0.393802 14980.3 -414912 199002 236204 27352.5 -9986.24 
191 1 33.8314 32.3292 3.72005 6.41127 -845044 -1.26882e+06 215908 -205142 9741.09 35471.9 
2991 1 35.5479 32.3823 5.60956 6.21278 -436206 -327543 458709 176528 10246 112074 
241 1 22.8138 33.0561 6.76012 15.2181 305028 383062 702962 -42473.2 -106822 -12359.9 
179 1 24.4159 33.052 4.64708 0.127042 -271258 -12217.8 826238 -160231 -72435.8 -47543.2 
180 1 22.8569 34.9383 4.94496 14.6878 60179.1 790371 783312 81213 -153927 -476242 
242 1 24.629 34.7375 6.62209 0.354274 -643083 -128733 427643 186037 -392231 853.565 
245 1 26.2105 32.9377 6.42962 4.63451 -487777 -694163 153447 -127919 209121 191480 
183 1 27.8351 32.7086 4.52094 1.94414 458437 1.29271e+06 382648 215157 166276 -156795 
184 1 26.2274 34.7753 4.58173 0.188424 504412 227844 358720 -272025 -60468.9 305538 
246 1 27.9932 34.5898 6.47577 4.94541 -181243 380951 82205.3 -54759.3 942910 -157275 
188 1 29.6275 34.6817 4.7649 2.276 279131 911439 -220723 585167 27489.1 -215364 
187 1 31.4953 33.0288 4.46276 3.47534 -325613 -150949 574575 -352768 -94956.3 117866 
249 1 30.7146 33.9598 6.7889 5.40255 116246 169024 91327.2 -704144 -353759 166807 
250 1 32.5849 35.4653 6.71144 5.76299 -5320.23 119120 565992 -600051 -209582 121174 
2922 1 35.4861 34.0383 3.71513 5.28704 -1.13623e+06 -1.00645e+06 332726 153527 77228.8 200914 
192 1 33.2575 34.6687 4.38277 3.98593 -894323 -634387 368746 485612 224712 70033.6 
253 1 33.24 33.0075 6.34766 0.721252 -388837 -1.06574e+06 136756 -537794 -298158 296616 
254 1 34.9791 34.7409 6.34977 0.674427 -310209 -522516 404278 -494601 167114 276477 
195 1 24.0304 22.7192 7.82511 26.6412 556447 1.03475e+06 152629 -8019.6 -311312 146760 
257 1 23.2838 24.0039 10.0597 30.0666 1.08995e+06 973751 1.32024e+06 -111221 -39818.3 707739 
199 1 26.6084 22.206 7.40157 12.4593 762067 -6462.32 310905 -510706 -230776 424722 
262 1 27.762 24.3099 10.0188 1.09503 -563363 -254987 -749720 -42080.8 -297083 146458 
261 1 25.6525 22.883 9.70616 14.1341 1.27556e+06 -316191 115699 -448684 25685.9 495052 
200 1 25.8569 24.5902 8.10045 1.12733 409638 -665728 47971.5 16666.3 159774 627791 
265 1 28.1987 21.9535 9.30807 15.7502 1.05491e+06 221991 506839 -160969 91000.9 69990.9 
204 1 28.3823 23.8599 7.61161 5.47439 -133407 -702738 518810 -499123 249894 119661 
203 1 29.9309 21.9097 7.49934 15.8719 822215 351124 1.09292e+06 -61238.2 -151520 113829 
266 1 30.1127 23.6438 9.55983 4.69595 -295912 -377954 -45930.5 203696 35731.7 106732 
269 1 31.7059 21.7656 9.27083 16.4476 629722 117621 782928 -119771 -50715.3 165656 
208 1 31.7986 23.5388 7.46041 0.116615 -499405 -641024 156477 256888 -134430 285470 
267 1 29.934 21.7919 11.2 14.7827 1.14494e+06 341668 918533 -336042 -113890 331609 
3009 1 35.1454 21.5755 9.30067 17.9884 1.12013e+06 365309 1.42993e+06 178346 -33156.7 8561.22 
207 1 33.3665 21.6148 7.36763 17.9662 555102 173636 454480 105767 489415 53151.1 
2940 1 35.271 23.3067 7.27164 0.935525 -456080 -302757 412279 155064 130538 -20865 
270 1 33.5297 23.3984 9.26788 0.293255 -151357 -419430 558141 189028 -582880 -99911.3 
3012 1 35.1419 23.4861 11.1518 0.514043 -184324 -322206 -180782 401360 -203348 -174535 
196 1 23.558 25.4397 8.19009 11.0912 16619.9 717068 823079 -247831 493205 662842 
273 1 23.5962 26.8891 10.4613 13.7015 47394.5 1.05048e+06 1.07079e+06 128651 190645 471330 
212 1 23.6305 28.7517 8.67051 8.61492 107749 517745 792237 147342 138567 -79011.3 
258 1 25.4077 25.2726 10.4265 5.07512 -153328 -538830 93432.1 -124447 37662.3 42816 
211 1 25.3755 27.0011 8.57422 4.94478 -504991 -640875 515614 -230585 79686.4 -234105 
274 1 25.4659 28.4975 10.5945 0.721636 36268.6 254843 366606 -49892.7 -314565 6225.86 
215 1 27.745 26.2041 8.08368 0.18033 191211 -241056 674490 -166192 -102663 -233780 
277 1 27.2663 26.8293 10.492 5.73007 -1.19252e+06 -395832 440548 -353376 21488.4 -232198 
216 1 27.2023 28.6412 8.62635 5.7252 -394025 287160 709157 187977 101306 -382130 
278 1 28.8749 28.5833 10.5327 5.67345 -625711 -415345 226973 -325885 -173228 -308965 
285 1 31.9638 25.3071 9.44696 4.82624 -616054 500444 -220128 -133113 -732454 -120522 
219 1 30.2382 25.3933 7.5829 5.13329 -347282 -75434.6 234245 -465930 196097 -365896 
220 1 29.4778 28.0048 8.12744 0.341677 -1.55377e+06 -93309.6 141486 15938.3 181703 80873.2 
281 1 29.5051 26.105 9.89351 0.382429 -773686 -77696.7 545050 -333291 41910.3 -71387.9 
282 1 31.2165 27.7998 9.96942 0.214522 -765014 463172 -432107 -323626 -305705 -95445.3 
224 1 31.7356 27.3572 7.52964 6.8224 -490139 -152488 487431 -591232 60286.7 -230561 
3027 1 35.3016 25.2445 9.34149 0.247872 39030.5 -24684.5 -56779.3 -7696.33 99656 586676 
223 1 33.6142 25.2803 7.47094 0.173255 58588.9 290649 431532 -919022 -295128 29171 
2958 1 35.2893 26.9572 7.5517 0.479916 -883275 -532547 -222442 -788636 -25159.5 212455 
286 1 33.6153 27.1768 9.32471 5.40978 -499321 -670737 -78197.7 -407979 631311 19933 
3045 1 35.3707 28.8058 9.34126 5.67436 -795929 -312283 466707 -313308 -130399 -63432.8 
287 1 33.534 25.2805 11.164 6.18347 -1.39721e+06 -157468 -193382 242307 -615307 65848.7 
228 1 23.0966 31.2279 8.3624 11.6584 -448190 -159452 -597086 -227502 518389 337810 
289 1 23.6393 30.3464 10.6147 8.91495 328258 1.0236e+06 474964 -153470 -268722 -168695 
227 1 25.4547 30.4438 8.75252 5.12938 -186466 350852 553612 -196353 -423555 -300462 
290 1 25.3724 32.1448 10.6665 5.37763 480732 -67610.5 218569 -124324 -75884.9 -44860.3 
232 1 27.1525 32.2589 8.688 4.76781 287717 549646 941977 -291900 -207291 60607.7 
293 1 27.2013 30.3872 10.5401 0.171767 161131 38553.9 632099 -9056.04 -484232 2875.32 
231 1 29.0659 30.4942 8.6274 5.30937 -44331.7 411733 975614 23931.4 113977 -153890 
294 1 28.8696 32.1678 10.6458 0.483357 -184248 -398284 179346 195585 97063.1 179772 
235 1 31.2951 29.6651 8.19715 0.269261 -779140 -873766 660625 -151541 103344 173245 
236 1 30.7968 32.2131 8.69539 4.91359 -980482 -852662 274511 -202647 20467 -439137 
297 1 30.6345 30.3579 10.6758 6.48748 6552.46 319179 279497 -456497 273099 -279414 
298 1 32.5234 31.9436 10.5853 5.67297 -572907 88591.5 547510 155374 -131.168 -318416 
239 1 33.6243 28.8748 7.4853 6.30681 -238334 -148953 332736 -488332 -290858 121572 
240 1 33.1086 31.3662 8.15501 0.162909 -774433 -33531.9 -392184 -273659 -473719 487180 
302 1 34.8256 31.2666 10.0135 0.160935 -784827 -225850 486280 -237879 122566 -217441 
301 1 33.1165 29.5481 10.0237 0.285982 -154209 -732076 385028 -234754 10745.7 273207 
2976 1 35.4528 30.5705 7.51074 5.82237 119274 438826 648902 -132953 -184425 164870 
305 1 22.9097 32.7983 10.2389 14.8411 253351 408465 416646 -183634 98446.3 -59857.1 
243 1 24.7199 33.0122 8.44941 5.28761 -664092 -92196.4 -468449 -602256 97690.3 211922 
244 1 22.7364 34.6854 8.53882 12.7088 769300 1.09199e+06 1.2177e+06 -8028.61 -45676 -204853 
306 1 24.6293 34.5958 10.373 5.52999 215171 194191 -379725 -210742 294649 -84906.8 
248 1 26.4868 34.7467 8.4292 5.53102 -45783 -43500.7 160879 -411085 192746 25289.8 
309 1 27.1911 33.8912 10.7487 5.4919 -62680 147203 735700 -80798.5 -24509.5 37590.7 
247 1 29.076 33.8524 8.81288 5.00294 80503 -72400.4 756787 -55327.3 7312.68 151445 
310 1 29.0184 35.5239 10.8472 5.97089 403566 -334737 880955 -432108 8616.99 -989.247 
252 1 30.7337 35.6681 8.7289 4.85927 88562.6 36162.7 1.03419e+06 -132349 -321760 72111 
313 1 30.8439 33.8246 10.6899 0.288885 -344591 92168.4 65800.3 -79475.5 -380968 -17021.8 
251 1 32.4591 33.9014 8.70769 5.24401 -547388 -394594 428654 -754676 199172 -6326.77 
314 1 32.6183 35.4817 10.6845 0.220428 -89477 70176.8 308632 -627493 -78703.8 -97796.5 
317 1 34.4002 33.6726 10.5524 5.95058 -38304.8 -335539 190832 -191628 181716 -660101 
255 1 34.878 33.1187 8.22256 0.60129 -90072.3 161724 -247500 -499319 -163806 224361 
256 1 34.2013 35.5932 8.61256 5.24281 23053.5 -383905 120424 -143109 -94422.1 -217970 
318 1 36.0921 35.3963 10.5559 5.25163 -397191 -146018 623523 -71022.3 438632 22310.5 
321 1 23.8797 23.7377 14.2352 33.2821 -279989 1570.72 534917 -1.20342e+06 65919.3 -470358 
259 1 24.9878 23.4736 12.0607 13.7069 1.10925e+06 507730 989186 -85070.5 584589 363156 
325 1 26.7945 23.083 14.1657 11.5198 1.19702e+06 439619 1.16477e+06 307840 521625 157299 
263 1 27.4293 22.5311 11.6496 18.9793 1.31262e+06 -135148 906479 -352192 191248 297348 
326 1 28.7761 24.9012 14.4046 6.04256 259886 31851 251303 538189 -47025.9 4189.8 
264 1 27.0861 24.9318 12.3927 5.6895 -165033 505032 563073 229982 411684 -218716 
322 1 25.566 25.1837 14.4248 2.24557 -1.7251e+06 -1.30292e+06 725303 -1.19881e+06 400579 -76608.2 
272 1 31.8285 23.4488 11.3415 4.76547 -206982 -821271 -174450 211491 -537643 126747 
329 1 29.187 22.5004 13.6667 16.3549 368844 61510.6 1.15146e+06 -365669 320857 94655.2 
333 1 31.5209 21.7355 13.1158 14.54 918137 -77471.9 672906 195631 101015 214056 
330 1 31.073 24.0812 13.6543 0.479583 -95020 274367 272025 -30042.5 -26281.1 -103295 
268 1 29.3035 24.2309 11.789 0.512871 -945298 503325 -514332 -6970.66 -347634 -120731 
271 1 33.2817 21.5766 11.2593 17.298 1.30459e+06 396254 1.60662e+06 618971 -134796 -18620.6 
335 1 33.4195 21.6656 14.9085 14.006 1.14313e+06 828857 1.04436e+06 -76976 385473 100264 
3081 1 35.0777 21.6869 13.1343 16.4171 210836 118360 841328 -95754.4 -25633.2 -96007.6 
334 1 33.499 23.5813 13.137 5.43014 -168007 -107113 244894 227205 -177244 10277.8 
3084 1 35.2946 23.5386 14.9379 5.0104 312953 -232126 241672 -394782 71595.5 -158476 
260 1 23.3232 25.3557 12.3291 19.0035 1.0803e+06 804215 1.11452e+06 16467.6 97744.9 325896 
337 1 23.6273 26.6692 14.4208 13.0773 376422 1.17767e+06 1.13181e+06 178768 55827.8 263664 
276 1 23.5687 28.4887 12.5425 14.1593 332255 1.57756e+06 1.64087e+06 201699 -228307 83360 
275 1 25.4213 26.8617 12.4729 0.541794 513095 207127 676193 122927 72904.3 122367 
341 1 27.304 26.8385 14.409 0.682731 -48845.2 -366250 531450 -317287 66986.5 -298681 
280 1 27.1223 28.6509 12.4618 0.300479 -137504 15546.6 481355 -337916 -166604 4208.51 
338 1 25.3212 28.5538 14.368 0.296555 238296 523021 420632 -49247 1753.79 -247692 
279 1 28.8643 26.7441 12.4149 5.6218 -95805.8 607553 694511 -469962 -132072 38125 
342 1 28.9844 28.6697 14.3327 0.705752 46853 166565 441659 -281609 41264 88752.5 
283 1 31.2222 25.8852 11.8273 0.421133 -62904.1 222712 646912 24979.2 210692 -79377.5 
284 1 30.6659 28.3466 12.3554 5.76215 -543129 -42563.3 369274 -413605 312830 150837 
345 1 30.6348 26.7231 14.2938 6.13828 114292 787239 313396 -228213 61566.6 8950.49 
3099 1 35.3759 25.216 12.9478 5.73699 -389955 -650842 -337842 86923.2 22057.1 308229 
346 1 32.5424 28.2875 14.3123 6.54033 -353633 -483669 479404 19846.6 243487 196325 
3030 1 35.4508 26.9562 11.28 5.61867 426972 -259929 316242 -500055 13286 353815 
349 1 33.0001 25.9516 13.7025 0.289389 86951.3 -243775 831674 334.971 -270200 -348765 
288 1 32.9461 27.7553 11.6805 1.05587 -402862 -374617 115672 -224888 -2333.71 14240 
350 1 34.8114 27.6155 13.746 0.218522 -327185 -3333.14 432903 -187732 298223 299939 
292 1 23.5508 32.1179 12.5553 9.47269 251914 543862 807963 76926.5 6893.43 -247139 
353 1 23.5538 30.3329 14.5282 18.017 436413 1.34367e+06 1.41033e+06 205886 -175076 406850 
291 1 25.2837 30.338 12.5166 0.309041 60901.3 559818 956006 311984 -396088 192356 
354 1 25.4125 32.1114 14.4895 0.242807 -238280 -90819.5 723060 314016 86364 225974 
296 1 27.2357 32.0613 12.5926 0.260481 -137724 -361764 -90524.8 72372.4 72964.5 400692 
357 1 27.1262 30.3934 14.352 0.380373 69282.1 -160437 177284 273543 183227 277034 
295 1 28.9582 30.2825 12.4349 0.266585 -364985 -338756 -312108 -270771 453664 115240 
358 1 29.0563 32.0113 14.3605 0.358006 -112881 86425.3 121414 -26747.1 -205740 461977 
361 1 30.8808 30.2544 14.344 0.464806 -158263 68395.3 300995 -296515 277353 57784 
300 1 30.7259 32.0333 12.4945 0.287089 32874.2 -258459 216560 -449716 306834 -10430.5 
299 1 32.4684 30.0523 12.5158 5.69221 -183178 39956.4 437992 -185043 570995 -48437.9 