ITEM: TIMESTEP
11600000
ITEM: NUMBER OF ATOMS
5780
ITEM: BOX BOUNDS pp pp pp
2.6471022075267903e+00 6.9652897792488744e+01
2.6471022075267903e+00 6.9652897792488744e+01
-3.7133823930819543e+00 7.6013382393097501e+01
ITEM: ATOMS id type x y z c_csym c_2[1] c_2[2] c_2[3] c_2[4] c_2[5] c_2[6] 
65 1 21.5889 22.3262 -0.0323416 31.6995 364723 394568 650215 50092.8 287299 -249819 
4 1 21.5941 23.9851 -1.9157 16.8511 219888 276287 960573 172338 -45019.9 74776.3 
3 1 23.2909 22.2433 -1.78372 15.8163 236980 -77040.8 611451 72495.3 -28271.5 -216177 
66 1 23.4339 23.9758 -0.0662678 0.179448 -181681 -469880 -215579 -337663 2321.86 -443726 
1 1 21.7154 22.2194 -3.6819 26.7301 300889 587040 1.12236e+06 -217060 -7995.18 -189904 
8 1 25.2646 23.7855 -1.94012 0.263569 208821 -304507 586127 -666117 81859.7 -23348.1 
69 1 25.2372 22.1848 0.036768 14.8971 1.33976e+06 -85125.7 991293 -177016 -144716 -364062 
7 1 26.9611 21.8271 -1.90252 19.3097 1.4511e+06 740481 1.44655e+06 -97939.2 -316987 64659 
70 1 27.195 23.7189 -0.105897 0.818479 -68924 -189111 282127 -419699 235489 54489.1 
12 1 28.8144 23.6154 -1.94467 0.2345 469744 732943 314549 -126226 360411 203739 
73 1 28.7321 21.7819 -0.127786 18.3005 370020 266816 276120 98875.3 -598200 109171 
11 1 30.4896 21.6543 -1.96151 18.5909 1.09154e+06 535706 1.0662e+06 -165105 286876 -143352 
74 1 30.614 23.4894 -0.148979 0.831753 6218.29 -55324.3 117249 49968.2 -42527.4 117337 
16 1 32.211 23.4791 -2.03373 0.400862 186601 -440339 -111188 248751 15767.6 -211203 
77 1 32.2148 21.6984 -0.100025 10.9392 822022 248189 1.21986e+06 402036 -21261.8 135353 
15 1 33.9137 21.7509 -1.90005 15.072 584142 120287 1.14083e+06 138247 -164520 -152127 
2793 1 35.8021 21.6135 -0.285909 17.5905 1.27121e+06 859313 1.11633e+06 -12618.3 -186290 288647 
78 1 34.004 23.5716 -0.129347 0.222565 304545 -35514.7 -155863 -30383.3 -283212 107528 
2724 1 35.7325 23.4263 -2.0441 0.488395 266684 -195619 327189 53821.8 -179728 -66074.8 
81 1 21.5023 25.773 -0.084699 17.4893 540409 1.04332e+06 878741 -223929 -220613 337170 
20 1 21.6404 27.3169 -2.08435 14.7007 87072.9 1.00924e+06 1.08112e+06 152285 191802 158213 
19 1 23.4609 25.6828 -1.93186 0.168286 219784 251616 697122 3579.35 -297519 212674 
82 1 23.3533 27.4578 -0.0270092 0.346296 142828 247574 472540 -370268 172977 317235 
24 1 25.2391 27.4653 -1.85129 0.518005 163394 -570497 -115723 -29092.2 -175817 54657.4 
85 1 25.2756 25.6903 -0.115749 0.231617 369153 342139 -161553 -422040 -213946 256943 
23 1 26.9445 25.4989 -2.00178 0.560086 31898.4 257912 -16918.7 -354604 -3596.32 103087 
86 1 27.1591 27.408 -0.201108 0.601889 -578788 -188021 -692092 -162743 -464893 330357 
89 1 28.8535 25.5169 -0.127441 0.248429 57373.6 150200 265504 -482356 -149467 -132012 
28 1 28.843 27.3632 -2.03298 0.182626 -465572 162701 -277978 -4609.5 15989.4 208189 
27 1 30.5744 25.496 -2.08696 0.369487 -49250.4 218342 383117 -265046 54226.8 -94407.7 
90 1 30.6275 27.2752 -0.188686 0.243417 115976 533640 622194 -23920.9 -142370 -137407 
32 1 32.3465 27.2098 -2.11862 0.295025 231062 -344486 129000 -44276.3 -139689 -56487 
93 1 32.2852 25.4116 -0.19801 0.184797 97459.3 185525 493875 120210 -162793 71958.1 
2811 1 35.8768 25.3008 -0.189806 0.146008 -49729.3 -290606 30699.7 196417 -123881 134402 
31 1 34.111 25.331 -1.99586 0.187751 326449 661147 218225 247498 -179595 61811.9 
94 1 34.1302 27.1142 -0.102353 0.643765 -22833.1 -156551 465045 224247 -515742 -32487.7 
2742 1 35.9768 27.1106 -2.13209 0.247354 190773 -231210 776256 219074 -378474 -79455.5 
36 1 21.5685 30.7829 -1.94981 16.9424 381882 134154 243649 405020 -43542.3 274951 
97 1 21.5837 29.3218 0.00322454 15.8418 93175.3 928858 997416 -528305 138851 491837 
35 1 23.3658 29.1448 -1.87388 0.215576 -718258 -565585 67158 -56432.2 -265784 179753 
98 1 23.3643 30.8749 -0.0196128 0.17457 -1.40342e+06 -759291 -69884.7 -243139 109973 -214844 
40 1 25.1426 30.788 -1.89532 0.455671 -196564 -217802 -12212.9 -256786 -411420 99669.4 
101 1 25.1857 29.1353 -0.0888116 0.191576 -180694 -494089 -799652 -158087 -540409 168495 
39 1 27.0861 29.1945 -1.90288 0.474068 -228077 -249942 -35715.4 98192.6 -355588 100282 
102 1 26.9937 30.9612 -0.131186 0.287687 119713 -544675 -19332 55432.9 -313577 -208535 
105 1 28.892 29.2125 -0.235484 0.401514 -65357 -61599.8 77463.4 -471670 -499628 -95706.1 
44 1 28.8925 30.9699 -2.118 0.43371 203568 -246789 10737.2 -148568 -374197 248870 
43 1 30.6429 29.0117 -2.24055 0.453472 -88515.3 -245627 238494 -175260 -75368 -475388 
106 1 30.7649 30.8099 -0.378905 0.503598 25795.8 17399.7 101425 -463410 -58171.1 226512 
109 1 32.5548 28.9625 -0.409979 1.02488 341402 -169046 653667 32998.9 -182911 -265532 
48 1 32.4824 30.8293 -2.19091 0.0948509 -61253.7 465030 -86739.5 71271.1 136183 60959.6 
2829 1 35.9359 28.9194 -0.272181 0.136106 176022 74662.6 233149 12689.7 242804 -233925 
47 1 34.2715 28.9995 -2.28074 0.792298 -411160 149641 285913 -301910 116707 -130765 
110 1 34.2045 30.8096 -0.304863 0.106092 -528989 -27317.5 93520.9 -288729 82204.4 -90117.7 
2760 1 35.8335 30.8046 -2.23607 0.295224 -379104 81128.8 491440 -461548 -255617 -2441.66 
113 1 21.6034 32.527 0.000749532 15.9858 171813 1.25876e+06 1.17997e+06 486245 -31029 207305 
51 1 23.3803 32.6441 -1.84378 0.291122 -550294 251611 523942 437425 -361189 187786 
52 1 21.7586 34.3926 -1.87777 16.6714 -86308.2 1.25498e+06 1.3955e+06 516416 -252532 71096.3 
114 1 23.3358 34.4967 0.0296078 0.709309 -315452 211148 -315042 172750 -131530 553167 
117 1 25.1616 32.6034 -0.132978 0.30462 -166927 -164164 -167552 30561.6 -217832 379176 
55 1 26.9705 32.5751 -2.14243 0.693363 -772.521 180897 262132 80885.2 -202829 67132 
56 1 25.185 34.3924 -1.80535 0.543494 253780 -928170 264951 39053 -69846.3 91207.3 
118 1 27.0299 34.3903 -0.0467393 0.411233 -170848 -191304 244868 2774.96 -81208.4 246326 
1357 1 25.2821 36.1408 -0.110682 0.520312 -177393 -239770 -134333 216818 -160189 -83363.7 
1287 1 26.9786 36.1202 -1.95535 0.187926 -556485 -119155 -267575 216880 -259156 206658 
121 1 28.8564 32.6235 -0.258601 0.124846 350576 307424 398399 -269635 -99344.5 -188072 
60 1 28.7437 34.4083 -2.09865 0.28986 258133 -154245 -57672.3 174521 51347.5 -387311 
59 1 30.7161 32.6791 -2.10722 0.164132 -450430 -402850 -365091 -464690 -145038 -88473 
122 1 30.7079 34.3604 -0.29591 0.177891 147569 -365903 7036.13 -34789.2 89113.9 -265644 
1361 1 28.7807 36.1008 -0.247188 0.535258 -407471 -122253 98404.1 -32179 157774 74187.9 
64 1 32.4294 34.4332 -2.15569 0.118641 -757057 -727967 -509990 -281821 58741.6 -310826 
125 1 32.4866 32.6237 -0.319165 0.0847336 -643586 -744750 -15469.6 -236695 -173985 -5066.31 
63 1 34.1926 32.7488 -2.25158 0.566204 -993687 -607623 31714.2 -274233 -222295 -161408 
2847 1 35.8635 32.6212 -0.319904 0.376878 -258576 -512693 56537.1 207646 143949 26285.9 
126 1 34.1901 34.317 -0.255137 0.27906 -995680 -1.11593e+06 -253091 123115 -16654.7 -315262 
4242 1 35.9612 36.1022 -0.443773 0.279043 -106655 -1590.88 221332 -122252 -262677 -42357.4 
2778 1 35.9543 34.3021 -2.24758 0.26645 -607748 -682739 -74374.2 -403941 -103192 -22874.6 
1365 1 32.4745 36.1459 -0.287152 0.12632 -350556 -205615 -131809 -225986 83370.3 -72478.4 
68 1 21.6055 24.0438 1.66409 20.3937 -373527 -708217 221082 -301428 221753 191186 
67 1 23.2697 22.2806 1.88113 15.7746 -177700 192033 470865 297155 -102710 -61620.4 
130 1 23.5699 24.1526 3.60308 4.94339 -1.05404e+06 -1.05509e+06 -372233 -694256 382208 452682 
129 1 21.8177 22.6918 3.73069 44.8525 -669747 413819 87775.9 -543369 127599 303091 
133 1 25.0529 22.2052 3.51052 14.2017 625126 25331.6 723760 113053 -274247 388925 
72 1 25.2735 23.9115 1.6825 0.484199 255980 -384701 -359476 -327335 -336685 -70811.4 
71 1 27.067 22.0365 1.84056 13.6016 730934 46273.8 668426 -455718 -318543 89749.8 
134 1 26.9256 23.9162 3.54609 0.279804 553521 95220.4 734545 23204.4 -378348 -28440 
137 1 28.6524 21.9241 3.69411 16.1307 931305 828909 609025 -73155.5 -711597 65708.4 
76 1 28.8306 23.6934 1.78201 0.34249 -1.18235e+06 -1.54596e+06 380814 -318043 -445809 54962.4 
75 1 30.2274 21.8644 1.69788 13.4224 475622 -406014 396760 833853 -489501 261904 
138 1 30.5115 23.7555 3.58719 0.240279 -427927 -826736 -307936 -157639 -313235 572360 
141 1 32.1052 21.861 3.47051 15.4249 1.74215e+06 423082 1.80726e+06 108979 -29993.8 183485 
80 1 32.2278 23.6892 1.73534 0.416005 27021.5 -70798.8 -138060 -47549.7 -108992 -2360.25 
2796 1 35.7343 23.6197 1.58678 0.391617 -181392 -315709 244313 -259223 -400758 668677 
79 1 34.1114 21.8023 1.61739 15.729 1.03451e+06 150773 968074 -414155 -328931 214318 
142 1 34.0251 23.5467 3.55627 0.424763 348131 51961.6 690027 441710 -243734 211817 
2865 1 35.7803 21.9066 3.45915 16.6631 894121 243965 1.35526e+06 257605 -13887.1 222902 
145 1 21.5658 25.781 3.56564 15.7678 299248 1.1956e+06 776181 -242337 247123 151312 
84 1 21.5648 27.5281 1.83136 18.5668 350200 1.03383e+06 1.0543e+06 -116285 99084.5 359724 
83 1 23.3154 25.6649 1.73303 0.668784 4853.81 -396587 -411270 -418503 15942.7 89316.4 
146 1 23.5032 27.3037 3.62549 4.1404 -364749 -39352.4 276217 173966 63189.6 -106484 
88 1 25.3347 27.4247 1.72285 0.418733 200881 -787288 -204947 -29558.8 44532.5 110805 
149 1 25.3776 25.8328 3.62595 4.50528 -634951 40705.6 -25500.4 574090 -328656 443844 
87 1 27.0472 25.6368 1.66141 0.275957 -309400 55378.4 320903 -354025 49477 347534 
150 1 27.1787 27.6304 3.62603 1.99443 -1.13437e+06 -56649.8 46594.2 -128482 -187580 508383 
153 1 28.8152 25.6293 3.5754 0.225511 324195 283779 632711 -201185 111081 -100490 
92 1 28.7472 27.4106 1.57804 0.692368 187991 364569 67541.2 -182788 -301750 -99980.2 
91 1 30.4465 25.3992 1.73408 0.565263 -783012 -197697 -172989 -442641 -305346 447919 
154 1 30.5694 27.4343 3.59556 0.43836 -80239.8 1833.31 234594 171007 197696 -102207 
157 1 32.2171 25.4321 3.505 0.365851 -328660 -170481 -203226 -622725 234055 2305.51 
96 1 32.2635 27.2002 1.73034 0.456833 138686 441995 262393 331650 -188524 213984 
2883 1 35.8165 25.4314 3.54071 0.277566 205289 -263414 25272.6 148179 -567499 -307670 
95 1 33.9892 25.3859 1.70849 0.137667 -429872 -433160 53074.6 -40539.2 13534.3 35870.9 
158 1 34.0322 27.1966 3.5185 0.188135 -103595 -111983 288571 27501.4 -327800 -540322 
2814 1 35.8749 27.0887 1.58483 0.165887 -92272.6 181820 -80934.7 -186293 -492448 -122366 
161 1 21.7576 29.2146 3.88774 16.6256 237819 924690 932649 -258529 -29019.4 22966.6 
99 1 23.4593 29.118 1.93948 0.494912 -440952 -260794 410637 -139201 -139511 113652 
100 1 21.7752 30.9539 1.97173 15.3058 32395.1 753263 680118 -87727.8 13838.2 131085 
162 1 23.5011 30.9209 3.81078 0.275545 -534177 -2183.92 395448 -376480 -64653.4 -143309 
165 1 25.2901 29.0722 3.61636 3.9017 -548023 184890 -230073 426599 101310 -180912 
104 1 25.1103 30.9436 1.80095 0.540176 -297225 -340401 259837 221436 -275289 155716 
103 1 26.9322 29.197 1.6282 0.71429 -353757 -651346 -268693 -399503 -273080 70207.4 
166 1 27.0779 30.8961 3.46549 4.23076 231792 222041 24513.1 313499 -114162 118609 
108 1 28.8862 30.8418 1.65091 0.262867 -336683 -209367 -108853 87728.4 -262309 166066 
169 1 28.9014 29.1985 3.49084 4.0529 -1.06213e+06 -1.07787e+06 -120534 -430666 33457.6 558379 
107 1 30.7067 29.1966 1.64065 0.497272 119678 40187.4 617079 134814 -114432 -70345.6 
170 1 30.6071 30.9223 3.48335 3.85934 -731463 -442484 317422 258070 -332088 -120921 
173 1 32.4395 29.149 3.58146 0.510392 -163461 -382984 64673.8 -161360 -408612 -156701 
112 1 32.5029 30.8358 1.51517 0.304381 -558924 -347413 387770 -250383 -7728.94 37015.8 
2901 1 35.8337 28.9464 3.3728 0.414224 -398349 -366240 60034.5 3927.38 79245.1 -145473 
111 1 34.1654 29.0165 1.59172 0.176749 -122211 122507 -27105.8 141920 -501515 -248878 
2832 1 35.9978 30.7608 1.4543 0.46054 -418799 -450795 -379946 -74551.2 -135319 -322629 
174 1 34.2259 30.7904 3.46394 0.132443 -1.36783e+06 -1.25892e+06 391775 -224052 -199595 94818.8 
2919 1 35.9248 32.4175 3.33307 0.738907 -628896 -236531 95307.3 -155223 -236829 -41349.5 
177 1 21.7911 32.7543 3.84659 17.0221 159148 957802 1.27517e+06 -191698 -107859 144283 
115 1 23.4589 32.6984 1.74149 0.535092 -792126 -834970 564744 260647 113717 -7386.01 
116 1 21.7303 34.3959 1.95931 17.3669 273446 1.28036e+06 1.1925e+06 382629 192219 166369 
178 1 23.5697 34.4073 3.76408 0.21908 -612761 -466552 541842 208344 113055 106796 
119 1 27.044 32.6004 1.69415 0.0988528 828989 -463897 -417764 -126679 -75226.6 -214864 
181 1 25.2729 32.6582 3.73664 0.356509 -6413.75 -285898 484516 -66721.8 249400 -410478 
120 1 25.2123 34.4898 1.75262 0.562607 53022.7 214499 338127 -61571 50140.9 78328.5 
182 1 27.1927 34.2143 3.49709 0.906962 -371347 -331190 105623 116755 385381 -5279.04 
1359 1 27.2127 36.0376 1.82038 0.49288 8472.78 -181766 -91761.1 216249 -26409.5 -189890 
1429 1 25.4575 36.0932 3.71851 0.166826 -640360 -768056 -234235 -416548 139095 103226 
185 1 28.9811 32.6025 3.65746 3.9689 -476402 -690416 490433 849861 207118 -286714 
124 1 28.9587 34.3372 1.71895 0.197855 -593412 -307819 23923.3 393132 124810 -341604 
123 1 30.6627 32.5522 1.52268 0.369719 -62259.1 -186103 283738 14223 -43677.9 28242 
186 1 30.803 34.2278 3.44779 3.5743 -831728 -396228 30980.6 -164546 -22843.6 -130734 
1433 1 29.0389 36.0255 3.51799 0.136382 189328 -127584 -261156 2718.98 -134545 -636417 
1363 1 30.7578 36.051 1.57273 0.205716 87220.3 -76552.1 304658 74668.9 264666 -252417 
1437 1 32.5266 35.9184 3.47491 4.01966 -885442 -416242 -569056 317598 550654 -326491 
1367 1 34.2179 36.0192 1.58071 0.28652 -631517 -561302 -6048.61 72037.2 -81240.8 -219956 
128 1 32.4936 34.308 1.58892 0.0354365 -824007 -707229 -407045 77467.8 335881 -379251 
2850 1 36.042 34.4018 1.46478 0.455623 -629682 -147304 -542074 176402 -687933 -218032 
189 1 32.5266 32.4904 3.47091 3.40002 -475701 -393828 -431415 543075 146072 150776 
127 1 34.2409 32.5739 1.60278 0.170124 -835259 -328770 -651861 87765.4 -176412 117381 
190 1 34.3096 34.3075 3.48355 3.71311 -180782 -145665 -129189 575346 -406612 55503.5 
4323 1 36.0993 36.118 3.37089 3.74618 -821779 -1.29029e+06 -415741 835021 -128554 303754 
131 1 23.4502 22.3436 5.42508 21.8033 202684 231444 913702 -330422 -309476 383374 
193 1 22.5876 23.5315 7.92738 28.748 -77760.2 648326 1.38774e+06 -814501 -310245 369552 
132 1 22.5226 24.7066 5.75188 10.216 913158 1.52785e+06 1.16677e+06 -58875.8 577613 177588 
194 1 24.4739 24.8264 7.83334 5.43217 -1.20891e+06 -1.44396e+06 -33341.3 -883910 110520 97222.1 
197 1 25.0437 22.4318 7.43321 15.2013 1.07694e+06 -191077 636341 -354628 324220 307831 
136 1 25.1246 24.0648 5.58834 4.71057 -34040.5 -692218 -88657.1 -359429 -492534 308926 
135 1 26.6786 22.1259 5.50971 15.2068 1.50639e+06 520571 1.32619e+06 179913 -59622.4 -109216 
198 1 26.9352 23.982 7.275 5.89884 -747552 -802050 98755 -454754 -57618.1 289928 
140 1 28.6403 23.8931 5.48266 0.133885 497667 443187 311384 294855 13449.6 253376 
201 1 28.5223 22.1415 7.30649 16.7371 950059 179516 1.19205e+06 188143 346972 277163 
139 1 30.3368 22.0633 5.43094 15.9503 285462 -270041 586775 -204188 -415381 -44533.5 
202 1 30.4234 23.7914 7.24535 0.53879 45844 -140324 359877 -148781 141294 -45467.1 
205 1 32.0444 21.9436 7.37609 18.7151 1.35087e+06 371072 1.51387e+06 149728 -43258.4 216294 
144 1 32.1678 23.6398 5.49083 0.409932 -402113 -268016 555243 -462697 -90584.1 236266 
2868 1 35.7232 23.7515 5.45295 0.784631 -153503 -98226.3 358022 -737265 -224458 130135 
143 1 34.1219 21.9402 5.49862 15.4817 1.37225e+06 238153 1.42038e+06 -390119 -162531 135841 
206 1 33.8937 23.6682 7.38307 0.423917 188638 24350.1 -97837.6 707.078 -164141 139845 
2937 1 35.8919 21.9327 7.26743 15.2971 903993 303202 940187 -382216 -578559 -94164 
147 1 24.3705 26.4717 5.8968 5.15131 616101 502740 493549 -163314 404821 95094.7 
148 1 21.8152 27.31 5.56657 15.7148 786852 1.38084e+06 951009 -197076 132600 279614 
209 1 22.7241 26.5389 7.76577 7.63384 -148402 1.26913e+06 820465 -33257.6 292637 -41266.3 
210 1 24.4247 28.2732 7.8031 4.96586 157535 453328 525591 -110122 7571.48 280309 
151 1 26.8853 25.822 5.47162 5.79926 -166641 319642 -141577 -201282 -730842 217440 
152 1 26.1554 28.2284 5.86591 5.76106 796985 492695 775824 -320859 254358 -46901.2 
213 1 26.2063 26.4822 7.84187 5.41292 -333746 416025 443737 -268438 466920 73363.3 
214 1 28.1619 28.1887 7.74883 5.93324 623867 397171 828245 182414 -39594.1 5725.4 
217 1 28.5824 25.7469 7.32933 6.1557 201955 -148851 443669 -459196 -337954 94502.7 
156 1 28.7924 27.5134 5.42363 5.38723 -665435 24856.1 -613437 -975770 -542714 163289 
155 1 30.631 25.5944 5.43063 0.652897 448737 80893 208429 -96495 -95315.9 35557.1 
218 1 30.5132 27.4092 7.22427 6.32573 -159342 85068.3 -253014 -16721.5 79945.2 372279 
221 1 32.187 25.5258 7.44241 0.655179 -688139 167831 -141422 37022.5 -77900 197583 
160 1 32.2986 27.3975 5.41887 0.462311 -1.08e+06 -282279 79512 -436305 -188954 73649.2 
159 1 33.8764 25.4059 5.54604 1.02795 511687 87897.3 721839 75708.2 -33869.5 -138419 
2955 1 35.8008 25.42 7.33279 0.50891 -149268 -419542 -5310.96 -242783 -244601 -213317 
2886 1 35.932 27.1223 5.21711 0.763389 189027 62669 107562 541049 -320905 -473901 
222 1 34.0433 27.2414 7.18764 0.240659 468852 -279501 -124263 -5978.12 -457988 -78118.9 
225 1 22.0228 29.1513 7.58598 14.7217 473663 1.04992e+06 990871 -226867 54612.5 41498.1 
163 1 23.6927 29.0153 5.51564 6.06596 22381.2 584018 222746 -367840 -25142.6 55671.7 
164 1 21.7904 30.875 5.72416 19.4782 847124 1.00457e+06 690722 -140252 147622 -523791 
226 1 23.8785 30.8091 7.42849 5.68096 -233310 392374 198784 -268753 657182 -55847.2 
167 1 27.9064 30.0165 5.68701 5.04732 1.01937e+06 948909 1.19767e+06 -177165 364363 130934 
168 1 25.3987 30.8229 5.55063 5.17237 -26174 403774 -260551 -402694 137106 -8453.96 
229 1 26.3656 30.0227 7.7137 5.09056 952992 723331 794627 135010 -155427 202204 
230 1 28.1809 31.8284 7.76359 5.00398 -287146 -62245.9 364028 -89182.1 -322376 -24681.7 
171 1 30.4819 29.1039 5.43696 4.82711 -208552 -566798 35734.9 -610756 -432745 39832.7 
172 1 29.8518 31.6443 5.86115 6.32307 812186 855162 555222 -455743 114620 284447 
234 1 31.7768 31.6741 7.65997 5.39336 -22158.8 195589 312132 -355560 -190153 7373.53 
233 1 29.9115 30.05 7.799 5.58811 441270 178399 478171 -103496 -50669.1 7650.9 
237 1 32.3292 29.1632 7.2538 5.2827 57524.7 -12830.8 159074 -348271 -305346 -59908.2 
176 1 32.3958 30.8526 5.32082 5.26218 482654 -185961 -579409 -256947 -253583 -94181.4 
175 1 34.1649 28.8994 5.31142 0.633471 -802140 -208432 -422603 -464569 -551512 22309 
2973 1 35.8465 29.0971 7.10627 0.690747 -384961 224636 -137525 -300180 -625776 490537 
238 1 34.0855 30.8654 7.1765 5.59374 -537317 -49466.9 -34639.2 -249199 362.861 80832.8 
2904 1 35.9752 30.6875 5.24598 0.307658 155436 -692.372 -156599 -153692 -326582 431498 
1427 1 23.8083 36.1416 5.616 0.180192 -195436 -48103.9 67894.7 -465680 238836 254658 
241 1 21.9958 32.4804 7.56545 15.687 251669 704648 356912 103152 99928.5 -466191 
179 1 23.6103 32.6962 5.64185 0.423407 98624 245700 -10151.3 43235.3 371294 -206905 
180 1 21.9271 34.5505 5.7854 15.1153 224283 839329 890458 -117005 13535.4 -420788 
242 1 23.8564 34.2964 7.52516 0.202367 -93446.2 -223117 -217639 78603.6 233162 -337614 
1497 1 22.1846 36.1005 7.59809 16.2189 56943.4 625104 600867 86591.7 -143211 -240522 
245 1 25.725 32.486 7.46506 5.55459 110562 33949.2 196709 -341112 553789 -138038 
183 1 27.267 32.4841 5.54574 5.13132 17361.4 -131312 -26263.4 103741 402226 -90098.1 
1431 1 27.3207 36.0948 5.43714 0.22674 -383104 -565712 -231290 -122647 -211450 -126266 
184 1 25.6137 34.2852 5.54546 0.412625 258246 -104634 402774 51115.7 -7568.21 -224663 
246 1 27.4557 34.2892 7.35479 5.12996 -582709 -148898 -143430 -299197 233095 -139075 
1501 1 25.655 36.0823 7.48753 0.192615 191659 111519 506872 -275181 330200 115033 
188 1 29.092 34.2552 5.46625 5.03318 703805 104745 -415192 -266191 197373 -653632 
1505 1 29.1891 36.0138 7.18723 5.70404 -489434 -556733 416746 -56427.7 -142798 -360562 
1435 1 30.9647 35.947 5.32655 5.46982 -28128.6 720831 -112003 -299923 463268 -105892 
187 1 31.6824 33.3143 5.65993 5.20124 1.101e+06 922074 1.03007e+06 -239278 161538 113808 
249 1 29.8543 33.5529 7.69391 5.30821 -161657 -61195.9 278677 -818136 -339547 157028 
250 1 31.6127 35.2244 7.6647 5.23185 -14159.5 -291028 703753 360495 39279.8 391858 
2991 1 35.9069 32.528 7.22565 4.99413 382450 591326 243913 -299901 -340118 -36135.8 
2922 1 35.9313 34.4511 5.29214 5.45725 -253138 -43919.4 380065 -363698 -607062 147883 
191 1 34.1837 32.604 5.38774 4.76669 464499 474558 490153 -395361 -469694 479707 
192 1 33.43 35.1847 5.69737 5.76366 437333 401694 860081 -264878 -28300.1 134234 
253 1 33.3792 33.5815 7.78304 6.54087 -282525 -162590 183607 -417506 114908 -232336 
254 1 35.2916 35.1024 7.74788 6.47443 -222541 -175506 150263 -310903 191293 82965.8 
195 1 24.3449 23.2472 9.72509 10.7588 350446 249475 352851 -499954 6692.93 212687 
257 1 22.7779 23.1672 11.654 30.3036 862196 479361 1.16049e+06 -192617 315064 -280604 
258 1 24.4061 24.9572 11.6954 1.12854 141091 683052 693920 -521496 -188465 -22518.7 
199 1 26.9873 22.4044 9.23438 13.777 938988 -173217 623686 -407492 293546 180429 
200 1 26.2515 24.7219 9.73825 5.8319 -170561 -519359 670238 -47854 -320591 -16099 
262 1 28.034 24.6027 11.5149 5.71287 -59828.3 -655036 -53655.4 223487 30894.4 -191431 
261 1 26.1195 22.9461 11.5832 10.168 1.105e+06 493874 555092 -230154 8095.41 7250.39 
265 1 28.6168 22.3304 11.1547 14.5494 834869 -358703 740726 105455 17495.4 -58884.3 
204 1 28.7167 24.0938 9.21598 5.61598 -196350 -668065 292595 -779670 247290 308205 
203 1 30.3627 22.1811 9.30534 16.6985 1.32766e+06 439546 1.41922e+06 -111818 235614 -19304.4 
266 1 30.5409 24.0202 11.1244 5.08904 412244 97504.3 191120 24941.1 234430 -127980 
269 1 32.0657 21.9937 11.2567 15.667 1.40261e+06 468264 1.56542e+06 -37871.4 -81138.3 -230102 
208 1 32.2435 23.8225 9.2533 0.255026 -20641.2 23287.3 293082 -200351 324028 226067 
2940 1 35.7224 23.6559 9.06155 0.367272 90704 -697581 178927 -478478 -457310 183328 
207 1 33.9412 22.0076 9.3063 16.4747 949293 168872 1.58929e+06 -96170.1 -369552 151151 
3009 1 35.7733 21.999 10.9688 16.0753 678817 555368 761819 -297120 -910706 230521 
270 1 33.8621 23.828 11.1566 0.971999 -361563 117000 -190580 -266310 386986 -403610 
196 1 22.5603 25.0671 9.94913 20.1572 403541 1.27426e+06 1.59929e+06 -177732 -236215 -19907.7 
211 1 24.5669 26.5165 9.69674 0.976177 -294789 66922.1 538118 334468 169290 156366 
212 1 22.8038 28.1956 9.79775 9.19012 140375 1.16737e+06 1.01042e+06 123978 6618.17 -57463.8 
274 1 24.5145 28.3167 11.74 0.462298 400239 721885 860585 -391244 -60464.3 514153 
273 1 22.5987 26.7905 11.9857 13.0296 602292 1.66935e+06 1.83598e+06 -321947 -112885 -174580 
215 1 28.0447 26.5797 9.70564 5.3549 -292788 154609 -28928.2 -313221 330906 -54265.7 
216 1 26.2475 28.3935 9.72457 0.475083 343573 67962.2 870666 2834.59 -104442 -89296.8 
277 1 26.4226 26.5353 11.5541 0.617438 8565.43 314824 112193 -231118 -99243.6 146488 
278 1 28.1263 28.3303 11.5648 0.182482 21925.5 -359489 90816.8 -211875 82239.3 198056 
219 1 30.4286 25.7494 9.16684 6.07386 -527297 -126004 519699 -627317 495279 94248.5 
220 1 29.891 28.1387 9.59249 5.80813 -6235.97 117602 615011 -330591 -89133.8 -4584.67 
281 1 29.8044 26.418 11.5699 5.14742 163397 -75446.1 -24002.5 -8983.87 12505.5 -79950.3 
282 1 31.606 28.2067 11.5581 5.82116 462926 -47489.3 -93536.3 -153174 13599.7 -340713 
285 1 32.3359 25.7982 11.0932 5.12606 -7976.17 -66723.3 -4473.18 -17219 44905 249527 
224 1 32.3218 27.4607 9.22113 5.25963 -375283 -267583 539704 -400850 114702 306612 
3027 1 35.7269 25.3833 10.9549 0.54239 -287203 -279472 236218 -161185 -8191.02 -54506.5 
2958 1 35.8632 27.2143 9.04928 0.17045 -667529 -406872 153796 -559249 143084 -282799 
223 1 33.976 25.586 9.13816 0.261748 -543862 -95666.9 20851.1 -310039 -258100 -79516.9 
286 1 34.2294 27.3947 10.9622 5.1225 -80817.1 -496430 -438288 -244250 -104885 176017 
227 1 24.4492 30.0648 9.81388 5.55007 -510238 -16688.3 893505 -14407.3 -388920 191579 
228 1 22.1677 30.7968 9.36978 12.8999 -612217 -261171 -876070 -174546 -78219.3 -587578 
289 1 22.606 30.0481 11.6704 10.911 593402 527792 726548 32869.3 20095.5 338922 
290 1 24.4799 31.7316 11.8026 5.144 -620547 -418002 258212 24424.8 -118397 -54895.7 
305 1 22.2291 32.3817 11.0699 13.0497 -232983 -324194 140154 5624.9 188058 -57107.2 
231 1 28.0916 30.0577 9.7486 0.312788 -72406.7 262326 363063 -296680 -39078.2 50623.9 
232 1 26.2474 31.7416 9.85493 5.33717 3601.35 -150994 261671 -67322.8 -353640 597240 
293 1 26.3132 30.0843 11.5964 0.217581 98092.4 -336263 -60148.1 190813 136558 361444 
294 1 28.1881 31.813 11.5512 0.179272 -189366 -270641 -91084.7 343449 -98565.4 -308709 
235 1 31.7034 29.9673 9.5723 4.86203 166007 8797.18 68593.1 -39090.6 -159143 -264393 
236 1 29.942 31.7293 9.62441 0.146437 -215945 -603609 -37450.8 -117681 -22187.8 -212824 
297 1 29.9124 30.0688 11.4942 0.420035 -389228 -172291 232250 74750.4 -58312.2 -113299 
298 1 31.8966 31.5919 11.4416 0.526674 144097 -338437 180644 -327003 40781.8 -240367 
2976 1 35.8912 30.8104 9.12034 4.95676 234231 -21013.2 -450509 387843 201282 407044 
3045 1 35.9576 29.1713 10.872 5.3551 -405022 -380768 -238898 -252385 160372 298148 
239 1 34.1056 28.9914 9.00785 5.82207 -420195 -116982 -527.291 -516550 -100119 103280 
240 1 33.5565 31.6151 9.43379 4.88487 -340581 600349 -110049 -251848 -135519 -70755.4 
302 1 35.2456 31.534 11.3547 4.60704 83499.4 -315477 -280334 -344450 460999 -160135 
301 1 33.5777 29.7961 11.3992 5.71559 -626784 -295253 623469 -57968.4 78544.2 -24332.5 
243 1 23.9162 32.5428 9.29967 5.4708 -1.22903e+06 -551638 51462.9 218719 432611 44908.8 
244 1 22.185 34.1799 9.32655 15.9793 -282086 330339 553565 399532 287116 99095.8 
306 1 23.9918 34.2269 11.2235 5.58241 -271814 26448.9 66549.7 -203225 -252626 92014.5 
1569 1 22.2308 36.0843 11.2524 17.5726 514113 1.27448e+06 1.53693e+06 -206255 54807.6 -76348.4 
1499 1 23.9785 35.9753 9.34199 0.381121 -234411 304049 145334 -181400 46857.2 -270059 
1573 1 25.777 35.93 11.259 5.54277 -1.00207e+06 -89828.9 -274696 -80163.4 187060 -115555 
247 1 28.1403 33.4594 9.66544 4.6598 253645 -478625 252206 362668 -88366.8 199414 
248 1 25.7836 34.2599 9.32099 5.07702 -668875 -360228 510563 -354422 103671 -99804 
309 1 26.283 33.4155 11.7485 4.6748 -924121 -600168 -164653 -168711 -65249.2 216554 
310 1 28.0086 35.1778 11.6086 5.26157 -207615 319402 -243684 174298 -288087 654132 
1503 1 27.542 35.8435 9.34896 6.1548 -244109 -427709 -20904.6 -515601 -224425 -53289.9 
251 1 31.6852 33.4526 9.5418 0.237721 -337703 361807 46195.3 -308016 719504 82681.3 
252 1 29.9495 35.272 9.59099 5.43699 -43484.1 124372 849625 -107930 -141.068 -34009.5 
314 1 31.8245 35.2302 11.5697 0.261586 113325 144818 693811 -139477 104491 52100.8 
313 1 30.1146 33.5269 11.4466 0.728484 409680 457396 330401 -575875 153811 -91739.5 
317 1 33.5339 33.4018 11.4529 0.131838 167389 -143325 575686 54629.6 237037 154032 
318 1 35.3863 35.1724 11.4272 0.17918 104348 -116578 605252 183482 47549.3 21014.6 
255 1 35.3154 33.3854 9.48165 5.4314 -266885 -297602 96952.5 -413525 -3044.89 223413 
256 1 33.5332 35.1743 9.59199 0.13997 64880.5 -127551 120103 -56133.8 205160 -426595 
321 1 22.9903 23.2287 15.6353 25.4583 750466 701017 1.25705e+06 -217396 -271307 394876 
259 1 24.6241 22.929 13.5831 17.4899 735175 579741 1.36117e+06 -168890 44198.7 11732.1 
322 1 24.6721 24.9351 15.4811 0.62932 -692161 -819532 963984 134509 -227824 40042.1 
260 1 22.8096 24.6069 13.632 14.5257 765653 805618 656544 321080 135651 -194984 
326 1 28.0417 24.7757 15.3299 0.198134 129263 -475095 487565 198905 -170606 119094 
325 1 26.2061 23.0657 15.4708 15.8932 826168 116765 774525 237767 -180056 132664 
263 1 27.8426 23.0044 13.5172 9.85678 560806 -253612 709258 483316 16941.1 15764.6 
264 1 26.2638 24.7553 13.3972 0.532186 -132053 -628330 739596 338845 -117177 148489 
330 1 31.6766 24.6775 15.2198 4.86793 -61300.9 -61195.7 3424.51 260954 435873 -11059.3 
267 1 30.2798 22.2573 13.051 14.0286 909196 136551 288803 100913 151206 -134795 
268 1 29.7819 24.634 13.3983 5.43275 505585 -237139 197563 -74066.6 117546 -144655 
329 1 29.7674 22.8408 15.3455 10.8238 1.65143e+06 569891 618745 66961.4 256851 -389100 
333 1 32.2204 22.1448 14.7007 14.1642 894972 265361 1.36046e+06 -559849 103768 420578 
272 1 32.3518 23.8651 12.9264 5.47547 77103.1 110608 -948367 -440632 498812 63758.4 
3081 1 35.8841 21.9759 14.7216 16.3434 334753 240238 464748 -401257 391467 86236.4 
3012 1 35.7175 23.7961 12.9336 0.548964 467954 23665.5 221760 290911 -180405 139676 
271 1 34.0171 21.7579 12.9041 12.5006 1.75766e+06 1.28338e+06 1.77299e+06 -18537.4 -10022.9 49508 
334 1 33.9889 23.7908 14.8088 6.12381 -159494 -242593 39914.2 -341678 -76816.2 511293 
276 1 22.6927 28.5734 13.7466 13.7687 538167 947292 786028 -425369 -101227 -364325 
275 1 24.6412 26.7248 13.6193 0.867408 548904 655545 -55529.1 -44870.3 133095 126201 
338 1 24.6158 28.3312 15.4954 0.397818 -353294 -533065 516663 -371666 -42508.4 -158136 
337 1 22.8733 26.512 15.3188 11.2832 -130261 1.18078e+06 1.52989e+06 258343 336282 42127 
279 1 28.075 26.5016 13.3804 0.33251 -787766 -153253 200286 -50271.6 -12553.9 211621 
280 1 26.5221 28.3841 13.5148 0.642464 133875 -379382 228189 30299.9 251770 -349817 
342 1 28.3336 28.2463 15.4574 0.741006 -8599.55 -273228 354876 -203194 83506.9 -127030 
341 1 26.4733 26.5885 15.4175 0.324004 -381991 47223.1 791398 35722 -179546 199418 
283 1 31.5838 26.3812 13.3869 4.77974 -418868 -205513 -475347 78982.5 324071 122773 
284 1 29.8908 28.1228 13.4494 0.461523 -456605 -493650 -149917 323493 35190.2 -96113 
346 1 31.7806 28.1722 15.1802 0.245664 -277025 13375.6 429565 -67099 -25361.5 -10886.6 
345 1 29.9429 26.4313 15.2557 0.144908 -254081 -640109 -61175.3 397054 289707 434993 
3099 1 35.8837 25.4417 14.822 5.41033 201297 140843 309459 2662.49 -191152 20931.2 
349 1 33.4941 26.3268 15.229 5.80124 151376 140050 397231 -193036 228815 -114769 
3030 1 35.8865 27.1959 12.7908 5.50586 -726362 444858 -104227 -244009 -234769 -357819 