ITEM: TIMESTEP
14400000
ITEM: NUMBER OF ATOMS
5780
ITEM: BOX BOUNDS pp pp pp
3.1124128539396585e+00 6.9187587146075870e+01
3.1124128539396585e+00 6.9187587146075870e+01
-4.8441840944624994e+00 7.7144184094478035e+01
ITEM: ATOMS id type x y z c_csym c_2[1] c_2[2] c_2[3] c_2[4] c_2[5] c_2[6] 
3 1 23.9487 21.374 -4.02517 16.5746 373719 537401 981796 -13546.3 -101582 123767 
69 1 25.5569 21.2369 -2.17521 15.2195 1.14133e+06 298246 1.06626e+06 387211 -377179 38523.8 
7 1 27.4118 21.3665 -3.96477 13.3213 1.15414e+06 -44813 1.45542e+06 271825 -270265 61925 
65 1 22.0988 21.5893 -2.18675 46.5704 719813 557519 885374 -127364 -144315 78513.2 
4 1 22.2459 23.2209 -4.00785 15.9939 311693 -186345 114341 -98105.2 303477 -117050 
66 1 23.9834 23.1001 -1.97825 5.27753 -1.54932e+06 -331930 -194336 -345781 50413.7 -150799 
19 1 24.0248 24.9796 -3.94965 6.15375 577.346 138055 146245 -33730.7 103807 -610495 
81 1 22.1611 24.8908 -2.18207 12.9534 104082 918463 901398 -78777.7 63870.6 -144259 
8 1 25.7339 23.1544 -3.93769 5.94233 -123723 -429254 162346 274410 -167991 -420877 
73 1 28.0583 21.889 -1.35356 11.6356 181360 -230775 697432 -339177 645428 -246821 
70 1 26.2304 23.6496 -1.51471 6.50696 -391534 540890 311423 -155889 -291928 -161063 
12 1 28.1471 23.6379 -3.35026 5.36414 62104.7 -178819 600130 -352328 -305283 -98351.4 
77 1 31.6169 21.8971 -1.50343 16.9665 1.11524e+06 518682 941729 60446.5 -201041 -140888 
11 1 29.9716 21.7923 -3.44599 11.4969 1.57075e+06 661965 1.84927e+06 -129038 -28984.1 215540 
74 1 29.7553 23.5795 -1.37805 0.772714 -383853 -12228.3 419878 -443459 50309 -79199.9 
16 1 31.5932 23.6931 -3.40732 0.32035 350437 -265545 609810 272261 -374287 -33501.7 
15 1 33.3706 21.9395 -3.44483 16.1218 1.21771e+06 268204 1.21294e+06 -47293.1 4601.48 -75879.5 
2793 1 35.165 21.8339 -1.59393 18.1396 770486 180282 1.13467e+06 -93004.7 -166419 77478.8 
78 1 33.4684 23.6289 -1.56808 0.153325 526990 -207296 353395 101029 4235.3 -319411 
2724 1 35.1988 23.6167 -3.47212 0.193082 -849946 -809234 429715 171047 -175212 -134623 
20 1 22.1205 26.7928 -4.02426 13.3643 12969.5 1.22239e+06 1.26305e+06 -143922 26624 65583.4 
82 1 22.5276 27.3232 -1.4022 10.8068 769786 972595 971868 20961.2 30967 76053.7 
24 1 24.3792 27.4342 -3.43585 6.07905 34969.6 105910 487723 -652115 -33945.7 56247.2 
85 1 24.4615 25.6092 -1.57451 5.72927 273819 741354 445641 -391659 -280488 -161197 
89 1 28.0418 25.5561 -1.50805 0.391424 73799.3 651416 158002 -156980 -208159 -266188 
23 1 26.4662 25.5208 -3.37629 5.62363 199259 190451 117855 -378855 -276049 173587 
86 1 26.2313 27.3528 -1.45972 0.212745 342671 238426 1.0317e+06 -89446.5 170399 68983.9 
28 1 28.0381 27.4576 -3.41382 0.936053 -444818 191689 -128683 -712729 -310859 167244 
93 1 31.5707 25.3675 -1.55814 0.291817 130345 344222 212696 -166358 -327190 30773.2 
27 1 29.833 25.4066 -3.37607 0.238544 -181901 180424 370518 -266760 -310812 -163913 
90 1 29.8499 27.2602 -1.56457 0.276634 -221930 -392723 292035 -215027 313538 -67263.7 
32 1 31.6702 27.1463 -3.40353 0.0858054 350105 281207 22395.2 -61292.1 28494.8 -265730 
2811 1 35.3374 25.3659 -1.51733 0.649338 29760 280052 307969 95366.9 -209681 23480.3 
31 1 33.5451 25.3578 -3.49464 0.428598 252752 -150581 494100 236679 -151935 -99625.6 
94 1 33.4572 27.0135 -1.57641 0.409707 260085 214401 530404 570.887 -66632 -70145.9 
2742 1 35.3223 27.1152 -3.46954 0.414999 -466052 -449107 383606 428133 370460 -239409 
101 1 24.4128 29.0749 -1.42641 5.4251 29829.2 407013 492074 105953 241325 -32373 
35 1 22.5721 29.2392 -3.24113 9.33244 351263 552944 1.25761e+06 -144100 -14377.3 52548.6 
36 1 21.9638 31.6288 -2.63211 17.3671 609516 1.22295e+06 1.2337e+06 99755.5 164781 -186877 
40 1 24.326 30.9829 -3.2172 6.05453 62459.3 -74640.7 435371 31674.7 -35528.9 -207059 
105 1 28.116 29.0088 -1.40602 0.225053 234620 -223479 447938 142260 27900.7 -205148 
39 1 26.1132 29.1809 -3.32753 0.625397 186812 -317684 -418946 -138469 -83066 129757 
102 1 26.2819 30.7524 -1.34675 5.71082 206392 516018 830510 -367030 -279647 -59816.6 
44 1 28.1681 30.7979 -3.28273 0.215778 431211 144454 280533 52001.3 -197838 -237530 
121 1 28.1057 32.42 -1.31279 5.23503 -22993.7 -447962 -857055 -135663 -512355 441723 
43 1 29.9106 29.0213 -3.37666 0.0896877 -225265 -256857 352808 -265631 -288316 -132911 
109 1 31.6973 28.8698 -1.58407 0.198698 31694.7 -177292 149537 -262560 -96458.2 -391666 
106 1 29.9752 30.7365 -1.49056 0.136532 -483721 -185248 -210952 -70235.5 -54881.6 -291602 
48 1 31.7158 30.75 -3.38397 0.118604 -202911 -11186.2 86260.9 160181 -158379 -109378 
125 1 31.7468 32.4511 -1.55884 0.266232 -679051 -1.15552e+06 -246069 96950.2 -44497.4 265485 
2829 1 35.2163 28.8657 -1.57706 0.186235 76276.6 538348 470407 175875 69771.4 -53202.8 
47 1 33.526 28.9628 -3.46593 0.114574 458528 437080 286793 50917.3 -60056.6 -385668 
2760 1 35.3033 30.808 -3.40864 0.252552 -493298 -188075 215949 346810 -15732.2 -234131 
110 1 33.463 30.6815 -1.60602 0.261929 -297622 -247052 179344 27907.3 76937.6 -16389.7 
51 1 23.8956 33.3857 -2.76865 5.29533 55864.6 -228762 134169 602791 -219690 -46854.8 
52 1 22.2362 35.1274 -2.51373 16.8031 -99843.8 846553 976453 280864 -324829 -183230 
50 1 24.0544 35.1037 -4.49125 6.35146 -504394 -628718 109545 161144 -65059.2 164276 
49 1 22.0528 33.508 -4.41004 14.6835 -4127.24 736822 415896 -2706.21 -217647 -147213 
114 1 23.9633 35.002 -0.777338 0.488799 -225965 -87504.1 413323 540188 -328944 47698 
55 1 26.3381 32.6473 -3.26094 5.9754 756844 297016 1.00958e+06 -166685 181471 -222309 
56 1 25.9225 35.035 -2.64954 6.06998 -366658 -300534 324268 -67904.3 63668 -198228 
60 1 28.1761 34.3404 -3.13933 5.24394 -436032 356982 705539 38025.6 124615 -136457 
117 1 25.6662 33.3563 -0.81646 5.57426 -53926.5 388106 483359 222592 597487 226607 
59 1 29.9784 32.5126 -3.32821 0.112006 -265000 -505552 281232 -358748 -528553 -72901.9 
1291 1 29.9981 36.0838 -3.1536 5.66993 99521.6 -584868 645812 67657.4 -57330.5 -136615 
122 1 30.0161 34.169 -1.39345 5.48952 -19891.3 -22193.5 -385543 207389 225367 352321 
64 1 31.7167 34.1721 -3.2469 0.433816 -619175 -611097 893.674 -668244 117974 473517 
1365 1 31.7644 36.0176 -1.37612 5.6767 -960886 -630510 68746.7 203655 16966.8 -112505 
2847 1 35.1573 32.5018 -1.51542 0.541889 -154653 205466 4844.33 -145919 -314196 -306425 
63 1 33.5818 32.5203 -3.34427 0.441667 -761711 -600246 -302426 123438 -332158 83416.7 
2778 1 35.2939 34.2253 -3.51449 0.573348 -194382 -84384.5 540348 -279456 -352599 186622 
126 1 33.4023 34.2765 -1.40766 0.738747 -236990 -876236 -383681 404084 -169308 -127230 
4242 1 35.3823 35.9947 -1.45136 0.260936 -424453 -76965.2 162074 548358 275484 19602.2 
1295 1 33.3875 35.9418 -3.26002 0.594708 -131679 -681315 -203421 10009.1 213276 67900.2 
67 1 23.7709 21.3744 -0.221505 26.6011 1.02021e+06 202418 1.20884e+06 65717.6 -38068.2 316456 
68 1 22.1569 23.2552 -0.354506 22.6282 -451388 -154541 -182508 2037.98 51822.3 -85946.7 
130 1 22.7572 23.6362 2.0245 11.5562 259813 1.05035e+06 223015 -239363 408124 134292 
72 1 24.4553 23.7401 0.301267 5.53521 -981083 18981 -518865 -370442 430010 -214296 
133 1 24.6343 21.933 2.1258 13.9126 873579 140407 1.13249e+06 -269703 -109522 -170150 
71 1 26.3564 21.777 0.229266 10.5661 847011 775881 672147 -281370 1.04606e+06 233700 
137 1 28.0874 21.7845 2.2698 18.3112 1.50847e+06 718278 1.58817e+06 -86301.9 79768.5 -62051.1 
134 1 26.3447 23.6912 2.17525 0.192879 -101587 405118 561740 -467142 642498 -7520.98 
76 1 28.0719 23.6597 0.344811 0.11458 -35972.3 104848 -252821 -155123 557610 -639975 
141 1 31.5675 21.8468 2.27357 16.3839 746240 136244 1.11268e+06 -127998 -38379.3 -43369.7 
75 1 29.8439 21.7207 0.432947 18.533 1.25877e+06 584180 934478 -43077.5 -226936 -53460.9 
138 1 29.8989 23.6656 2.12063 0.657982 -484499 -373939 451371 247866 354201 -4880.1 
80 1 31.5606 23.6448 0.370743 0.296655 -490529 -408604 -36427.7 100320 189034 -105027 
2865 1 35.2148 21.6945 2.41869 15.6943 1.21679e+06 325393 1.62461e+06 -237580 -62530.2 -292296 
79 1 33.3315 21.9142 0.35459 15.3131 1.36418e+06 205253 1.05304e+06 104285 -50853.6 -369898 
2796 1 35.2641 23.5746 0.357731 0.479232 355507 279762 1.18585e+06 -198268 -249377 -30789.6 
142 1 33.3923 23.4574 2.23158 0.421202 416968 -200540 596956 -445772 -248692 -496416 
149 1 24.5055 25.4815 2.2987 5.51845 603187 117059 166746 -59268 -240016 45288.6 
83 1 22.7935 25.5277 0.379633 8.90588 -76026.1 -625844 832326 -68452.6 -14278.6 369397 
145 1 22.0762 26.2698 2.79807 16.0699 637849 1.24929e+06 961657 -310559 -75237.3 63448.8 
84 1 22.2017 27.9566 0.955491 14.9092 -261222 542367 531213 -10939.1 172944 7491.38 
146 1 23.9671 27.908 2.90552 5.72856 -178116 -174445 680959 -158063 97206.7 84360.4 
88 1 24.4706 27.325 0.431677 5.74713 -536130 -36949.1 620083 -194048 226944 -24585.1 
153 1 28.171 25.3875 2.22302 0.15098 -201290 -322390 228275 50744.4 288272 27049 
87 1 26.2517 25.464 0.277374 0.263739 604615 281074 517578 -134702 134072 -57840.1 
150 1 26.3929 27.1828 2.16701 6.64485 223571 -153535 644694 -175611 103031 256520 
92 1 28.1754 27.2073 0.379344 0.264863 -193585 -243149 30562.1 19300 294429 -77814.9 
157 1 31.6412 25.3498 2.2663 0.0948206 106046 168135 505083 -296714 53558.9 -91444.1 
91 1 29.8581 25.4667 0.34879 0.181964 -251044 -321166 46231.7 477410 186295 52512.4 
154 1 29.9322 27.1835 2.29394 0.15869 136543 143404 34669.1 -81853.3 93110.4 209429 
96 1 31.7783 27.1669 0.424344 0.46581 -368779 -351346 503244 94641.7 -18388.6 -85837.2 
95 1 33.3584 25.2995 0.266205 0.644495 174107 46090.5 496158 38852.8 -58844.9 -75965.6 
2883 1 35.0324 25.3526 2.34613 0.98977 221312 -240605 542867 354139 170248 66441.9 
2814 1 35.2296 27.089 0.421374 0.334385 -206867 8206.44 249487 265364 -289276 -98043.5 
158 1 33.4637 27.1115 2.26634 0.102372 -737619 -432241 453713 690530 -332671 196732 
111 1 33.547 28.7936 0.318705 0.285157 -399061 -421783 668963 215786 238783 96510.9 
98 1 23.8941 31.5446 -0.742361 5.77226 -62053.2 111274 362227 -289792 312253 -220463 
97 1 22.1317 29.827 -0.74073 14.3993 -53486.7 1.04682e+06 1.06003e+06 -239789 -131515 9124.98 
161 1 22.2337 29.6111 3.02398 16.9237 570365 1.73636e+06 1.79501e+06 539957 -22956.7 28348.5 
99 1 23.9331 29.7393 1.00525 5.44441 -725037 -532476 495928 -35279.7 -62101.5 -88459.4 
100 1 22.3434 31.5819 1.23523 14.6309 -335427 725685 544430 -25670.7 9561.79 -304385 
162 1 24.1573 31.4492 2.95622 0.342637 -507437 628232 23621.3 567737 10048.2 -159973 
169 1 28.1 29.0112 2.25389 5.83476 -362026 -160389 215004 -233421 -168328 -157572 
103 1 26.2855 29.0425 0.527047 6.06558 79243 -34608.5 185483 -142599 -95635.3 327971 
104 1 25.6941 31.4437 1.14033 6.12963 -242764 -198408 119900 66118.1 315081 -404821 
165 1 25.7823 29.5243 2.99618 5.76423 -271709 -71485.4 46546.1 -160644 66440.7 -133485 
166 1 27.5852 31.3915 2.85768 5.62776 -489696 -424142 218282 39285.2 318344 173873 
108 1 28.1509 30.7868 0.3483 6.09022 1840.33 -1.10194e+06 -632681 -551173 -240790 550991 
173 1 31.8006 28.9034 2.28692 0.250842 -19760.1 -10602.5 601767 -140703 -87773.8 -32427.6 
107 1 29.9871 28.8584 0.377109 0.376591 -87033.4 -16847.8 452982 -405412 -54614.8 -57503.5 
170 1 29.9284 30.7406 2.19815 6.04387 244736 -453156 690150 -137521 -22925.8 180089 
112 1 31.7824 30.5585 0.271815 0.486047 202634 474433 435618 -194749 -15329.6 -49967.1 
189 1 31.8378 32.376 2.28592 6.32243 -142969 24280.3 307955 8889.13 -13543.2 509220 
123 1 29.9035 32.4541 0.309628 5.93045 -749952 -906743 -495632 -378092 12574.7 93769.3 
2901 1 35.28 28.8392 2.3403 0.243259 -397269 -295144 241252 157670 11742.4 42777.7 
174 1 33.5274 30.6123 2.25643 0.177955 -57127.8 -162419 591100 148790 24486.7 110082 
2832 1 35.3154 30.6553 0.421069 0.206805 6671.77 -100755 572968 622768 166300 -256886 
2919 1 35.4863 32.3319 2.26029 0.864772 -108697 -482715 -265557 444204 -330007 -12030 
127 1 33.5622 32.4139 0.408126 0.166255 -176390 -147263 393292 264516 492147 19820.2 
113 1 22.1193 33.3238 -0.651322 18.4371 472655 826707 995277 -67868.6 -96088.8 -261718 
115 1 24.1107 33.2756 1.03641 0.680424 -857831 -581708 -234147 322953 364209 -99750.7 
116 1 22.227 34.8123 1.24667 16.016 231738 929304 734840 262502 -82923.3 -469349 
177 1 22.434 33.1629 3.11733 16.2796 -273655 -89130 234533 -182202 -160638 -393259 
178 1 24.0872 34.8846 3.04467 0.434207 -1.25687e+06 -1.19391e+06 28379.8 543449 131865 356000 
118 1 27.6534 34.9304 -0.740839 6.03131 76694 79640.9 -42536.7 6087.79 -24512.5 -141512 
181 1 25.9933 33.263 2.86116 0.799457 -215931 -523869 39122.1 16171.2 204838 -140793 
119 1 27.6809 33.1412 1.02313 5.44139 -388602 -182962 -595244 15537.1 608409 -7879.12 
120 1 25.9359 35.1154 1.18875 1.09713 -123554 -686627 -294271 -18468.7 161247 -211218 
182 1 27.8246 34.8417 3.03138 0.278483 -1.05924e+06 -775857 217100 12924.6 -114618 -242994 
185 1 29.4152 33.0269 2.8631 6.14342 -16856.7 -841898 367679 198399 -63756.7 -15109 
124 1 29.5203 34.8063 1.04259 5.97424 -886149 -717551 521968 -389245 64985.7 -226474 
186 1 31.2659 34.8359 2.98457 6.16005 -315119 -312162 -627359 82037.3 298623 301359 
128 1 31.8423 34.1585 0.52595 5.39306 -800329 -264526 24959.1 460495 99304.4 92671.9 
4323 1 35.4097 35.9437 2.2279 5.79081 -194545 -730460 605256 -44278.2 -46582.4 -330783 
2850 1 35.3331 34.1545 0.466591 0.362618 -469464 -509657 49255.2 362840 254819 -269257 
190 1 33.5907 34.2178 2.25681 5.7814 -540599 247191 -209105 -354897 -40187.1 -55279 
1367 1 33.6501 35.9448 0.354086 6.45365 -145196 -817122 -284718 46064 -40747.9 29976.8 
131 1 22.9364 21.9213 4.1819 48.7354 801683 244811 1.47758e+06 -47526 -201328 13686.9 
129 1 22.3913 24.2862 4.38612 14.1301 -425446 209141 227483 97935.8 243479 -672273 
193 1 22.3599 22.7937 6.49959 42.8204 328391 549460 1.15677e+06 -328785 -155769 93825 
194 1 24.1311 24.3721 6.55056 1.2851 -1.88916e+06 -443649 -47007.4 -370301 -49553.4 395658 
197 1 24.7107 21.9317 5.97752 15.5782 727034 550684 825290 -268738 413159 36667.7 
136 1 24.6408 23.6361 3.93578 6.68335 -754491 -615258 612299 -58323.2 551932 54142.1 
201 1 28.0523 21.8048 5.93608 10.9845 1.05972e+06 416919 1.20122e+06 50744.3 53621.1 22756.7 
135 1 26.2641 21.7671 4.14025 17.4568 1.14975e+06 803617 993449 275538 211815 -38973.4 
198 1 26.4508 23.7449 5.98833 5.55426 -164259 -105021 631645 -240566 102085 269085 
140 1 28.1255 23.6563 4.07123 0.164125 539553 256865 684740 145937 -5712.85 218677 
139 1 29.805 21.7865 4.15391 18.4025 689378 513912 1.03227e+06 -53976.6 -87152.2 -113185 
205 1 31.3995 21.7524 6.05714 16.0636 1.11225e+06 214138 898546 115987 -68279.4 -12411.4 
202 1 29.7968 23.6331 6.0253 0.130564 183984 42575.3 264853 64907.8 416285 188204 
144 1 31.582 23.5322 4.2056 0.138482 471206 -29046.5 803358 -289042 47284.2 -66437.2 
2937 1 34.9676 21.6986 6.09153 16.4898 1.18875e+06 481211 1.37405e+06 286079 -228524 -182301 
143 1 33.3694 21.6577 4.16048 18.2908 1.37949e+06 770702 1.42747e+06 -129879 -185802 42265.6 
2868 1 35.0918 23.5264 4.14192 0.37589 201377 -96949.1 481334 184970 -201053 -115027 
206 1 33.2696 23.4648 6.13869 0.291301 251733 -336361 346295 330387 -214274 -60879.5 
132 1 21.9823 25.3428 6.51501 26.5192 -78786.7 945457 832712 322989 -62505.8 -660355 
147 1 24.0178 26.1208 4.65832 4.09164 -524132 -146730 390846 326010 110353 -45514.7 
148 1 22.2612 27.673 4.84102 14.6414 161310 1.31661e+06 1.29358e+06 660089 132685 -321108 
209 1 23.5686 27.1731 7.01525 5.60702 -932390 -221794 492829 -490792 -118351 -243516 
151 1 26.3667 25.4613 4.09915 5.96676 -33029.2 117482 700054 -21003.1 -65124.8 54691.2 
217 1 28.08 25.5621 6.04475 6.51434 182087 -341687 768820 -170531 189328 122050 
152 1 25.814 27.8408 4.85871 5.15818 347314 -245832 97232.2 -213754 -312313 417756 
213 1 25.7613 26.2043 6.65571 0.533972 -640083 -339953 -8480.47 -105890 86088.7 565199 
214 1 27.6018 27.9203 6.56099 0.557373 -522555 -43835.8 317081 -78411.6 -281091 -55119.4 
156 1 28.2006 27.1913 4.10245 5.99795 136933 -96867.8 458424 62396.4 364289 81597.7 
155 1 29.8972 25.4022 4.15567 0.0885923 -102113 -6527.19 614448 -8155.13 -117681 370119 
221 1 31.6339 25.3883 6.07855 0.152992 -26714.9 500903 333484 -131082 -159086 33949.3 
218 1 29.9347 27.367 6.12159 5.83928 -818559 307340 629094 -277520 279581 -57475.8 
160 1 31.642 27.1669 4.24349 0.200073 456696 224436 468547 -311703 -161999 114181 
2955 1 35.1189 25.2724 6.07622 0.199875 207107 216544 27056.9 88313.7 -246354 -163732 
159 1 33.383 25.2409 4.17965 0.194411 -269738 326863 437140 94206 266374 -11880.9 
2886 1 35.1679 27.0784 4.1702 0.12622 264976 262187 -55768 24498.7 -389274 -52812 
222 1 33.4315 27.1213 6.05799 0.0864814 -34746.3 182719 510603 74788 -222152 120520 
225 1 22.5385 29.4782 6.89125 17.5137 371032 1.00439e+06 454424 -64706.2 380408 269449 
163 1 23.9748 29.5941 4.92889 1.68683 84459.6 631842 167686 430822 260647 -258354 
164 1 22.3799 31.4369 5.06439 15.5648 518591 1.21625e+06 1.3374e+06 409048 -222550 -229879 
226 1 24.2758 31.2785 6.7577 5.62806 -38495.5 355821 739453 -95690 -10572.4 -447915 
210 1 25.1811 28.8828 7.04416 5.48018 252468 97685.9 677657 -875375 -203790 -286610 
167 1 27.5966 29.5917 4.68819 3.93168 -602165 47378.8 34803.8 131680 -288743 189728 
168 1 25.8899 31.4058 4.75285 4.45469 -155967 119449 436309 198120 -19041.5 -367571 
229 1 26.9315 30.635 7.06708 5.88741 105890 -115963 1.70723e+06 -555509 -103314 20261.9 
230 1 28.7048 32.2854 7.17594 6.29451 112847 -51425.2 908025 -818709 -200612 -232881 
171 1 29.8935 29.1051 4.07874 5.69496 -247027 -248924 699304 -196393 177960 -89407.6 
237 1 31.6999 28.9455 6.08585 5.91552 -670701 -553748 410143 -1.07125e+06 150440 -189301 
172 1 29.4031 31.4094 4.81725 3.94179 -562497 -894441 203070 695903 75353.6 475013 
234 1 31.1899 31.4574 6.64502 0.252803 -346714 -47498.4 169756 -446308 -127305 96349 
233 1 29.2676 29.8008 6.59321 0.554345 389982 -14947.5 643424 -174457 -40462.7 325255 
176 1 31.6932 30.7783 4.22578 6.37203 -490256 -544805 434658 -298749 151214 48582.5 
175 1 33.4633 28.9323 4.22929 0.142252 -51512.1 -192753 -77955.1 -51644.4 -162081 -27171.2 
2973 1 35.2415 28.9127 6.02437 0.211612 -765934 -675169 487554 -448842 -162013 -145857 
238 1 33.4358 30.5629 6.09675 5.25635 -701173 -287340 119535 -44514.6 -52457.1 -107296 
2904 1 35.2528 30.6833 4.20585 0.268148 -345034 -382262 38357.8 -228796 -200290 162479 
191 1 33.5156 32.4141 4.10079 5.88773 -593244 -7281.54 532969 -19245.8 -414650 -163416 
2991 1 35.2141 32.4701 6.01962 6.27593 709479 473856 669968 143611 -34030.2 -141610 
241 1 22.5188 33.0044 6.93722 18.3207 606126 690867 915536 160635 -3987.23 -257710 
179 1 24.2811 33.2354 4.8537 0.875002 -1.19155e+06 -827888 504985 713561 -55747.8 -51929 
180 1 22.4682 34.6444 5.08286 15.2646 -243591 708001 881729 863106 203424 -53921.1 
242 1 24.3922 34.7511 6.90564 0.195849 117140 794247 306167 -190642 146940 -15953.5 
245 1 26.181 32.9109 6.85166 5.23782 315454 -626552 349524 28053.7 452485 -564101 
183 1 27.6861 33.015 4.913 1.81972 -546021 -554561 309066 559474 302344 -357551 
184 1 26.0392 34.8352 4.88414 0.299056 -778103 -750728 485385 168732 328405 -54699.2 
246 1 27.9726 34.7294 6.77443 5.57332 -679445 -615299 365785 -161111 400427 -112247 
188 1 29.5959 34.7864 4.80556 3.87225 -981549 -470593 -74594.5 939251 246991 -26194 
187 1 31.2459 33.1339 4.80141 3.57171 -536425 -935276 215677 826963 -135388 429841 
249 1 30.4425 33.9537 7.16861 6.51974 301295 242483 1.21899e+06 -496370 105531 199484 
250 1 32.2649 35.6987 7.11999 5.97608 1.00786e+06 462427 1.74852e+06 -392790 -146276 72947.6 
2922 1 35.3682 34.1723 4.11762 5.60238 -332831 111778 612837 493596 258922 -17107.8 
192 1 33.1534 34.8764 4.71801 2.83592 -707447 118776 474010 68143.7 -89576.4 121044 
253 1 32.8939 33.1509 6.69649 0.314679 -320432 451903 585573 -471455 -354265 160166 
254 1 34.7944 34.8693 6.67806 0.274623 818178 -185312 500587 -190870 6660.92 239423 
195 1 24.0058 22.8538 8.42748 21.5762 -187037 -61274.2 780840 -652596 -210407 733017 
257 1 23.2426 23.8095 10.7705 35.6566 826733 1.12108e+06 1.80603e+06 -453929 -42679.8 229505 
199 1 26.3491 22.0583 7.92702 13.4859 54962.8 78261.5 90527.3 -290718 -322737 152363 
262 1 27.5497 24.2378 10.2918 0.626751 -593509 82750.3 645228 -276630 149034 158363 
261 1 25.6715 22.7038 10.2598 17.2198 393091 -99666.7 291821 -502441 -247886 147287 
200 1 25.7043 24.4753 8.42467 0.472638 -819519 -793396 -736436 -867486 -225162 100204 
265 1 27.9808 21.8077 9.61515 16.2509 372964 514893 731210 32338.1 -32939.1 135295 
204 1 28.1362 23.7022 7.82489 5.92483 -313467 -432099 40327.6 -125708 140486 130645 
203 1 29.7268 21.8441 7.89566 16.9375 214338 -235519 746399 -254881 461384 -31144.2 
266 1 29.8324 23.5976 9.82734 5.80877 -646417 -171137 150797 261294 263591 206415 
269 1 31.5478 21.8215 9.8862 17.4616 1.07372e+06 323847 848665 295070 506724 272933 
208 1 31.5228 23.4207 8.00099 0.784421 -405000 -619736 384273 -109532 394125 71313.8 
207 1 33.2491 21.7216 7.9796 18.7611 1.0743e+06 433718 1.25542e+06 404949 212760 219742 
3009 1 35.0715 21.8556 9.87264 15.5889 519013 -603898 650093 -126016 23680.1 -368814 
2940 1 35.1656 23.5019 7.88961 0.208325 145977 -144170 329960 332086 -383240 236334 
270 1 33.4293 23.6457 9.85983 0.480152 129159 -350671 772117 164479 -162588 60761.8 
196 1 23.3744 25.392 8.7329 8.18526 74098.7 728927 956746 -243359 207887 58287.2 
273 1 23.5297 26.9302 10.8195 12.776 -104196 513688 -99981.3 11697.5 372617 511614 
212 1 23.4074 28.6403 9.03036 8.55943 105587 489391 377726 491476 -135124 150633 
211 1 25.1629 26.9977 8.99647 4.71867 -1.31723e+06 -277341 -98042.4 -198338 83809.7 52898.3 
258 1 25.1952 25.1479 10.6922 5.06258 -870416 -802629 403224 -524046 38935.7 -54117.8 
274 1 25.23 28.7009 11.042 0.609895 227435 177267 481822 -115810 -215629 -235198 
215 1 27.558 26.0798 8.56221 0.604135 -102616 214426 493504 -382298 -266998 -82410.1 
277 1 26.845 26.8425 10.9244 5.30581 30762.7 238662 573155 -295541 197299 60760.4 
216 1 26.9557 28.6618 8.94007 5.16483 6318.51 724642 1.47237e+06 -366632 -19250.7 -30961.7 
278 1 28.6862 28.6376 11.0115 5.969 495942 913335 992809 16648.3 -333912 -165889 
285 1 31.5903 25.3774 9.8321 6.11796 75007.9 438703 489023 192596 -312415 266072 
219 1 29.9634 25.4637 7.99173 5.23132 -364646 -115924 462433 -563947 -40403.3 17329.9 
220 1 29.2995 27.8759 8.51421 0.193599 -628640 416584 374304 81760.2 -126953 -112975 
281 1 29.2439 26.1197 10.4032 0.195507 -86685.2 443885 729455 -375732 -164213 55744.9 
282 1 30.9909 27.8232 10.3315 0.500893 -24298.6 83147.3 -425657 -366719 88294.4 19943.5 
224 1 31.6104 27.1645 8.03063 5.9482 -726602 -511262 91314 -335833 -16347.2 -102036 
3027 1 35.197 25.3057 9.8306 0.215006 -440686 -402045 358577 -701172 -59336.5 407155 
223 1 33.3347 25.2034 7.88521 0.686016 17162 148653 137193 -188781 -60404.1 14797.4 
2958 1 35.136 26.9061 7.93611 1.09503 -77153.4 298314 -175999 147708 -291227 -168344 
286 1 33.5382 27.2698 9.8006 5.67379 345370 -234.809 53013.7 -163947 320148 219710 
228 1 22.6263 31.1297 8.79061 14.9155 726024 1.13436e+06 973351 -181439 42458.3 192037 
289 1 23.1792 30.2969 11.0334 11.0278 826689 1.59951e+06 1.27689e+06 -192737 -97114.5 128327 
290 1 24.9587 32.0585 11.0615 5.03071 -14145.6 311144 101413 217343 -65801 141742 
227 1 25.1815 30.4694 9.10113 5.30884 1.05059e+06 274798 1.04045e+06 55109.4 -223934 -249170 
232 1 27.0103 32.2006 9.25971 6.13475 308364 -335051 690848 -165556 -120888 201193 
293 1 26.9804 30.5483 11.0959 0.912304 445068 153507 233690 -81749.6 63952.3 68969.7 
231 1 28.6677 30.4049 9.08718 5.49256 626171 639020 1.24166e+06 -100681 -32619.3 13502.5 
294 1 28.8571 32.2229 11.1035 0.554415 -250109 -424805 286118 -442307 -19791.1 -349297 
235 1 31.1997 29.5934 8.52864 0.478459 70457.9 243146 329941 -200292 -37332.1 -24938.2 
236 1 30.5567 32.2016 9.05486 4.56372 222678 119403 361486 -177960 -203433 11873.4 
297 1 30.5486 30.447 10.8791 4.82304 -306160 196202 505161 78694.7 -62286.1 334155 
298 1 32.3592 32.0846 10.8705 4.5302 -441298 -217647 353769 -85624.2 -101241 -44056.3 
3045 1 35.2129 28.9813 9.80099 5.98053 -495640 -752126 556188 -525181 -50457.6 -79049.3 
239 1 33.4907 28.9173 7.96288 5.57956 -275598 -37024.1 -207244 44521.9 -39067.7 500717 
240 1 32.9205 31.3852 8.53601 0.0776581 -304692 -211511 -67817 -586175 -122709 73364.8 
302 1 34.6739 31.2734 10.3708 0.219812 -637117 -436062 183541 -18240.2 148673 -187303 
301 1 32.8417 29.6087 10.3803 0.277344 -565184 -468525 -236764 38434.7 25083.7 -129755 
2976 1 35.33 30.6553 7.90771 5.56493 267834 308845 233524 -163877 265321 55112.3 
305 1 22.7084 32.9455 10.7268 14.8871 -314777 1.07945e+06 1.34097e+06 -324189 186340 117947 
243 1 24.4568 32.8557 8.82214 5.32493 433833 148321 250746 14208.3 57076.4 34414.5 
244 1 22.7494 34.7184 8.79044 15.7951 -188577 706544 952203 -487852 23224.1 -245845 
306 1 24.448 34.6034 10.6647 5.39247 -424851 -111858 -35660.8 -383343 -442934 109637 
248 1 26.2794 34.6084 8.64775 6.4567 609692 -26214.2 251339 -271451 -6033.63 103202 
309 1 26.82 33.832 11.1868 5.37694 -6027.31 224037 618248 -340260 244032 40969.4 
247 1 28.7305 33.9241 9.14665 5.28993 283825 -104855 575503 -261273 -30449.6 -385303 
310 1 28.6157 35.4854 11.0668 4.64075 -39741 62926.9 -31776.4 -192710 -79152 203266 
252 1 30.4847 35.7271 9.20823 6.01979 405972 -97091.8 625368 -104697 -208840 -327676 
313 1 30.6069 33.83 11.0408 0.264368 -187537 -379618 67575.7 -356853 324663 -604407 
251 1 32.3186 33.9241 9.0914 5.25751 -142031 380644 579063 -276577 196558 -46492 
314 1 32.4389 35.6384 11.0294 0.437986 -332851 -195194 253208 -86912 245071 -177189 
317 1 34.1147 33.8616 10.9688 5.31857 114485 388473 614502 99448.1 47086.4 19656.5 
255 1 34.6153 33.1121 8.55711 0.447641 214493 283148 621355 -260782 -123877 56449.3 
256 1 34.1818 35.6015 9.07014 4.89268 455948 104010 406596 -252722 221742 299859 
318 1 36.0366 35.564 10.9681 4.92239 -163331 201558 488375 97909.5 144497 -63605.5 
321 1 23.5507 23.6453 14.6943 27.6046 822036 888215 1.74985e+06 -418617 84087.7 -192890 
259 1 25.1512 23.442 12.7035 9.89317 167302 661738 1.56303e+06 -574421 75889.6 50342.3 
325 1 26.7323 23.2295 14.6689 10.3378 718963 303635 1.28314e+06 344559 -199022 134854 
263 1 27.3303 22.5073 12.17 19.633 668320 461419 1.41356e+06 84225.3 15699.7 125841 
326 1 28.6019 24.9801 14.7199 5.27657 306189 -183340 111247 -46597.1 338337 316555 
264 1 26.9129 25.0367 12.7086 4.88519 -374168 134642 1.16078e+06 -333630 80417.6 142319 
267 1 29.8432 21.9365 11.6417 13.8376 737180 -296594 910298 -474030 482619 299824 
272 1 31.5213 23.664 11.7625 6.62504 -160431 -73843.5 135272 -340796 122008 99644.7 
330 1 30.9912 24.2294 14.1023 0.272829 36919.2 -141739 116547 -86935.3 -134056 -225585 
268 1 29.2271 24.2787 12.2902 0.164874 -320777 286579 544863 494526 66356 -92598.8 
329 1 29.1224 22.5426 14.1628 18.4227 850868 282574 880392 -179903 171912 30226.2 
333 1 31.5693 21.9061 13.5332 13.9433 979010 -71700.5 974065 -13914.4 237147 178241 
3012 1 35.2213 23.4496 11.6701 0.446777 -175941 -897842 -391922 -279230 -291591 -622742 
271 1 33.4036 21.8156 11.7958 16.6002 1.18087e+06 564977 1.34892e+06 -370940 378104 -108898 
3081 1 35.1891 21.8877 13.7545 13.5657 963802 104110 1.29599e+06 -111563 -272274 -99391 
3084 1 35.1086 23.6617 15.4924 6.53972 453521 -148721 64569.8 15493.7 -27242.2 -496645 
334 1 33.4416 23.6474 13.5933 5.89578 -52495.2 -656579 497115 71178.4 10751.8 -314889 
335 1 33.2629 21.7173 15.4922 17.3624 1.03278e+06 710969 1.12472e+06 201955 298991 -212810 
260 1 23.3265 25.5117 12.773 15.0618 185660 1.06372e+06 1.64128e+06 -1.10439e+06 95045.3 376429 
337 1 23.4348 26.9075 15.0245 14.6077 529983 1.09601e+06 1.35255e+06 -303500 -6589.07 133673 
276 1 23.4021 28.4557 12.903 14.4441 360567 1.26075e+06 1.55842e+06 266809 152051 -49180.9 
322 1 25.3353 25.2107 14.8163 0.863384 -262919 -562604 1.02234e+06 -660527 -59856.6 58620.6 
275 1 25.2007 26.8475 12.8351 0.625826 -1.28288e+06 -207391 943468 -344830 -14035.8 342154 
338 1 25.2153 28.5567 14.9503 0.207487 -907730 -150997 896437 299918 191761 123519 
341 1 27.0029 26.9083 14.8302 0.429669 -739218 -568745 94394.7 -145741 104298 229953 
280 1 26.8421 28.7028 12.9739 0.83472 68674.8 44301.7 515390 374340 -111335 -29368.1 
279 1 28.7232 26.7655 12.9871 6.87348 678973 728943 911031 -271923 271940 7968.3 
342 1 28.8703 28.5988 14.7807 0.31017 365883 -424446 241691 -319533 128267 -4776.76 
283 1 31.1064 26.1913 12.3419 0.805848 77698.3 398501 1.01028e+06 -188362 106297 163745 
284 1 30.4965 28.649 12.6719 4.75988 -483231 -221826 278626 322215 -320683 -285805 
345 1 30.4947 26.645 14.8604 6.06892 -127470 356026 302796 -87757.6 244434 27518.5 
346 1 32.3105 28.4018 14.5394 4.93375 325458 527166 853795 246242 267560 108256 
287 1 33.4508 25.378 11.6803 6.07245 208549 188208 221126 -179209 21096 -269782 
3030 1 35.215 27.1236 11.7791 5.3838 -971116 -727175 142370 182636 -338718 22222.4 
3099 1 35.2909 25.2472 13.4266 6.66314 -1.28229e+06 -916867 -388397 -390354 300015 129763 
349 1 32.8649 25.9413 14.1591 0.257908 42101.4 -487066 532532 -127338 -72038.5 -274294 
288 1 32.8969 27.8065 12.1794 0.263145 -511296 -349443 230954 -220826 466843 -255730 
350 1 34.6475 27.6456 14.2174 0.65307 -458768 -35975.7 -105703 -139828 334442 144124 
292 1 23.3964 32.0414 13.1031 10.2966 144181 1.15887e+06 1.26194e+06 3582.57 65213.8 167816 
353 1 23.4927 30.2172 14.8998 15.1974 119761 979434 1.35282e+06 313137 248598 249793 
291 1 25.1178 30.2956 12.9608 0.241661 -660808 -356175 678169 675753 374304 -232297 
354 1 25.1779 32.0797 14.9129 0.309587 -472934 276468 931628 85357 -121861 -157068 
296 1 26.9257 32.0334 13.0039 0.279985 710998 43538.7 50287.1 -28664.2 70339 -436973 
357 1 26.9997 30.312 14.8979 0.161401 263381 -135146 36047.1 -91059.6 -297867 63920.6 
358 1 28.7867 32.1076 14.8494 0.196212 -27026 -38683.3 524169 320973 4107.26 224838 
295 1 28.8411 30.36 12.9262 0.264079 -136516 -57091.4 468234 481612 -357195 -64722.3 
361 1 30.6251 30.2924 14.6685 0.50236 15108.5 -64032 433400 -414991 -43036 361857 
300 1 30.6704 32.0996 13.0085 0.617964 106819 -303493 510217 -177551 -135976 257944 