ITEM: TIMESTEP
9800000
ITEM: NUMBER OF ATOMS
5780
ITEM: BOX BOUNDS pp pp pp
2.3445190258924233e+00 6.9955480974123120e+01
2.3445190258924233e+00 6.9955480974123120e+01
-3.0029646132562196e+00 7.5302964613271769e+01
ITEM: ATOMS id type x y z c_csym c_2[1] c_2[2] c_2[3] c_2[4] c_2[5] c_2[6] 
3 1 23.6202 22.3899 -1.03415 14.914 1.06835e+06 534060 1.87341e+06 419055 116686 -272215 
4 1 22.1215 24.2431 -0.962337 18.1933 2858.24 257805 1.08711e+06 5096.35 4698.08 78055.6 
2 1 23.9245 24.2945 -2.96901 1.31247 -1.22443e+06 -733728 971149 -182783 1894.53 -137678 
7 1 27.7621 22.0939 -1.22519 13.6414 1.28155e+06 -80569.7 1.42493e+06 -917775 -85948 266439 
8 1 25.7859 23.8604 -0.947194 0.919821 739174 -493115 364626 -61858 -25068.7 -121753 
70 1 27.6157 23.7712 0.89256 0.508072 -2263.99 -152129 1.23784e+06 91998.7 -169893 -20312.4 
69 1 25.8401 22.0602 0.639995 13.8289 1.76499e+06 229024 1.74513e+06 -203686 58146.5 445306 
5 1 25.4997 22.4252 -2.9731 13.4994 879790 279137 957062 -71598 -638047 -158976 
11 1 30.9703 21.9898 -1.09917 17.0147 1.3211e+06 525251 1.48866e+06 -16052.5 -315366 -167945 
12 1 29.294 23.8252 -1.22559 0.38453 -643420 -1.11708e+06 982749 -800069 -285288 37447.6 
74 1 30.9485 23.7229 0.846075 0.178834 -321578 -1.18064e+06 751916 455677 -38331.2 163569 
73 1 29.2447 21.9644 0.848937 17.7297 1.28799e+06 371563 1.73124e+06 54335.2 -219279 -62924 
16 1 32.629 23.8392 -1.15356 0.0801727 -312055 -640152 771611 219715 218349 282662 
15 1 34.3418 22.076 -1.22824 16.4982 1.32893e+06 316234 1.42958e+06 190029 44816.8 176781 
78 1 34.3081 23.7679 0.839405 0.165439 -47305.4 -577343 1.24217e+06 394065 -24670.6 -176275 
2724 1 36.0969 23.8787 -1.06158 0.265558 352431 -52119.2 636371 -145496 -62262.8 -314705 
2793 1 35.9694 22.0917 0.794821 16.0267 1.10678e+06 113016 1.66617e+06 468571 87406 899.637 
77 1 32.5605 22.0612 0.765842 16.1645 394513 -371387 1.03814e+06 482297 -326705 183375 
19 1 24.0858 25.6223 -0.829574 1.00695 -1.26863e+06 -832485 356568 -877517 -194112 -35458 
20 1 22.201 27.3033 -0.814846 14.0157 461553 1.30597e+06 1.68333e+06 -110926 -51106.4 -330704 
18 1 23.941 27.141 -2.93638 0.830981 -593381 -100223 825196 -54380.1 -219792 5940.28 
23 1 27.5744 25.5698 -1.09631 0.173781 -491411 236520 473382 180241 -45821.7 88415.8 
24 1 25.7401 27.1978 -0.990903 0.4254 -620814 -849747 480076 -701996 349195 134916 
85 1 25.8869 25.5348 0.906493 0.336191 -320474 -834884 -579857 -197858 -316064 288564 
22 1 27.4933 27.3853 -2.98885 0.182027 -741435 -790910 763196 -245885 -101393 35921.4 
21 1 25.8592 25.6355 -3.00193 0.529961 -829407 -349529 608677 -675067 -291028 -363646 
27 1 30.9589 25.5329 -0.988771 0.442404 -587505 -394287 432848 24606.3 219372 33913.9 
28 1 29.2696 27.4213 -1.00108 0.258991 21884.7 4556.56 699214 152967 -13554 143601 
89 1 29.2822 25.5562 0.800027 0.433127 -483315 -251823 587246 30685.1 102463 7793.06 
26 1 30.9163 27.3396 -2.99808 0.174265 -373329 92061.6 1.18791e+06 -156602 26072.5 15770.2 
25 1 29.2442 25.6568 -2.99821 0.328087 -309088 -185406 771469 -128685 291949 222820 
32 1 32.6373 27.4187 -1.08011 0.27432 -119325 -118336 865242 237642 -161931 48070 
31 1 34.2379 25.658 -1.12516 0.533021 -349774 -412139 756681 -194941 -233668 -144828 
94 1 34.3546 27.2746 0.851311 0.188579 -82422.7 -138039 512849 -135544 125160 -49598.2 
2811 1 36.0962 25.5239 0.900949 0.174634 -246688 -501272 525473 -69144.3 206542 -154493 
2742 1 36.0646 27.2577 -1.03714 0.325285 311887 719401 1.02244e+06 -582903 -147837 59718.9 
35 1 23.9646 29.0116 -0.924864 0.266939 -180733 67975.1 822663 -118330 311874 374640 
36 1 22.2251 30.7403 -1.05008 17.2268 561496 1.47438e+06 1.52023e+06 308575 128886 154918 
34 1 23.9145 30.6032 -2.96718 0.582438 -711931 95327.9 428971 602935 -419973 -46574.4 
39 1 27.4373 29.0172 -1.04446 0.300124 45216.1 208736 455127 129447 272107 -154288 
40 1 25.6274 30.8455 -1.11697 0.5054 -191685 -213753 532852 167879 191740 146375 
102 1 27.4424 30.9406 0.816277 0.366478 -188659 -521346 737316 -9447.16 297916 -91330.6 
38 1 27.4185 30.8656 -2.89711 0.275661 -420593 -97574.9 -54433.4 765179 2898.46 -304588 
37 1 25.6424 28.9306 -2.96019 0.42344 -145229 55675.4 975604 690667 -98436 -109002 
43 1 30.9185 29.2805 -0.931595 1.02777 -547798 -520750 889363 -455920 54148 -93861.8 
44 1 29.1474 30.9039 -1.13996 0.571725 -963329 -579741 222235 235046 -258707 111380 
106 1 30.9078 30.9108 0.901088 0.219088 -22939.7 -620440 16952.3 -159000 64143.5 297728 
41 1 29.1467 29.1297 -2.98935 0.239629 -261318 -458278 614158 -123891 -99102.4 -106493 
47 1 34.3643 29.1559 -1.01357 0.375215 -251986 48798.2 662146 -13334.4 -414144 19434.7 
48 1 32.6279 30.8202 -1.23582 1.10346 -1.30401e+06 -951826 892134 -49795.2 65041.1 185231 
2760 1 36.1387 30.9166 -1.02109 0.275468 -161980 -196055 638418 212031 75242.1 16913.8 
2829 1 36.0284 29.1237 0.858042 0.364416 -226413 -53076.1 481638 154658 114085 140902 
51 1 24.0334 32.5972 -0.943103 0.43021 -893577 -243277 215110 800434 82488.9 220073 
52 1 22.165 34.1119 -0.968301 16.3796 252853 817780 1.03197e+06 413829 136077 283519 
1353 1 22.1416 35.962 0.868823 15.873 543732 1.72705e+06 2.02574e+06 -7966.93 95032 -169803 
1281 1 22.0207 35.9499 -2.8046 16.7236 352649 1.48455e+06 1.39004e+06 -11909.9 -327064 -104868 
49 1 22.3394 32.475 -2.95963 14.5024 204299 440090 844732 -20140.6 43650.8 107883 
113 1 22.3415 32.4727 0.879845 14.6846 -401085 304213 452421 394053 36841.9 661608 
1283 1 23.796 36.0879 -1.10612 0.605653 -126628 480753 785183 75705.1 -72680.1 -335110 
50 1 23.9289 34.3151 -2.84796 0.42223 -2439.56 1007.43 900066 -223237 78455.7 -213797 
55 1 27.409 32.6215 -1.11159 0.272391 -99907.7 -174043 357659 142261 117593 -144619 
56 1 25.6978 34.4643 -0.922747 0.641287 -501877 107034 595660 -421251 -257752 32069.4 
53 1 25.6914 32.5506 -2.99355 0.219414 106406 47545.8 502554 455626 -35301.6 282613 
118 1 27.3987 34.411 0.902611 0.167567 -393670 -258854 251539 237865 -273160 82331 
1287 1 27.4718 36.0535 -1.03471 0.428783 -288612 -399380 971995 -474083 -5661.8 -4591.23 
59 1 30.9474 32.486 -0.941893 1.15311 -295034 -392249 292214 156920 -159730 142425 
60 1 29.2225 34.3727 -1.04705 0.344938 -223285 -339437 190261 -29520.6 -168654 -322318 
122 1 30.8849 34.4557 0.784761 0.709323 104507 187489 313847 -40587.9 -103592 139471 
1291 1 30.9067 36.1417 -1.02741 0.127162 139124 -58452.1 732284 38766.1 -63739.1 424314 
57 1 29.2063 32.7311 -2.84475 1.04046 -377760 -1.03642e+06 39986.8 -682076 363831 -115507 
1293 1 32.6612 36.0337 -2.99376 0.266695 404213 224040 861810 28678.7 9955.58 -261989 
64 1 32.7062 34.3859 -0.985551 0.230905 175741 183378 671472 94348.8 230281 135758 
63 1 34.3851 32.559 -1.13115 0.325009 -222033 17793.3 634127 440001 -228320 297761 
62 1 34.4767 34.3389 -2.92941 0.294178 -491478 -429890 649651 169909 -148338 122458 
2847 1 36.1161 32.6322 0.808956 0.370433 139446 -185954 867508 203375 43473.2 -40922.6 
1295 1 34.4798 36.0923 -1.03302 0.182664 -829561 -971937 749437 -104172 -229992 -23478.3 
61 1 32.6603 32.6704 -2.99259 0.280941 47967.2 -127986 715778 -122654 -271608 128071 
66 1 24.0647 23.8767 0.984024 0.786428 -1.00275e+06 -667759 47731 -254340 -305329 51181.4 
65 1 22.0331 22.6121 0.943343 32.0375 603018 758675 943266 -206578 196598 -228356 
67 1 24.1385 22.0638 2.74922 18.4248 1.59361e+06 477198 1.65441e+06 -577979 308102 3010.4 
68 1 22.2523 23.8786 2.99204 16.0876 1.02414e+06 889945 1.15179e+06 -288004 45620.2 -221234 
130 1 24.3277 23.8431 4.63822 1.94141 277655 -151835 754440 -522631 590641 96877.6 
71 1 27.3707 21.9035 2.8696 15.1844 2.17638e+06 933515 1.98952e+06 93912.6 160133 -121400 
72 1 25.764 23.878 2.69138 1.13121 -743881 -192755 -89380.5 -182148 32494 420662 
134 1 27.3553 23.68 4.77313 1.32489 929654 545357 785443 23366.2 477830 13989 
75 1 30.9563 22.042 2.81361 16.4055 822689 -279764 1.52163e+06 -311430 194341 82347.3 
76 1 29.2306 23.7429 2.90734 0.289033 317258 -199556 1.20864e+06 179079 -94680.7 -15181.4 
2796 1 36.1151 23.6821 2.85445 0.430581 422962 394961 1.16823e+06 319053 58876.3 47869.9 
80 1 32.51 23.7888 2.9178 0.889163 -238738 -742177 936278 -82816.4 300377 -100149 
79 1 34.2242 22.0324 2.79708 14.9025 1.48776e+06 509925 1.75079e+06 137942 189068 6257.78 
81 1 22.3417 25.5595 1.19349 12.5452 -127215 875316 406674 313739 -317723 -98993.4 
82 1 24.1199 27.366 1.00257 0.324297 -607880 -348900 -311074 -250903 -239259 -50296.7 
83 1 24.1021 25.6346 2.88566 0.383214 -575623 -164724 183086 -96974.7 -165357 319578 
84 1 22.2359 27.4359 2.85482 16.7534 524892 1.12269e+06 1.52692e+06 -426303 124419 -62698.2 
146 1 24.188 27.512 4.79119 1.14703 76588.8 120830 837139 -300862 -267030 282432 
86 1 27.6107 27.3018 1.02589 0.631286 -572719 -627487 240186 62903.9 187612 -37344.8 
87 1 27.5455 25.578 2.90585 0.208229 -196749 -428846 545843 -241774 -375786 55784 
88 1 25.8173 27.3259 2.77089 0.499558 -871181 -314405 148029 -97764.9 -4158.27 300487 
150 1 27.5798 27.3953 4.77445 0.316145 274112 175599 878665 -530059 314755 90133.8 
90 1 30.9973 27.3383 0.983355 0.290413 20827.1 -1012.66 645344 -68028.7 -371625 -76391.1 
91 1 30.8295 25.5303 2.85997 0.492311 -252976 -516449 806601 402560 233758 67425.3 
92 1 29.2067 27.3093 2.93103 0.263033 -961993 -468310 178595 249632 -133565 104872 
154 1 30.8736 27.2441 4.82617 0.488223 200857 128109 543440 -502347 -142620 83187.5 
93 1 32.6201 25.5546 0.939167 0.217796 -557786 -229090 761173 131970 -217083 -96716.3 
96 1 32.6494 27.3881 2.82643 0.260649 463713 591219 551212 86028.4 -359662 -20444.4 
95 1 34.4001 25.4963 2.78672 0.226627 302292 571987 776158 86798.5 137930 25591.2 
158 1 34.5093 27.3848 4.73015 0.71583 546122 492150 911967 -26268.7 7535.21 281105 
98 1 24.0316 30.8392 0.934602 0.313462 -683946 -424841 400347 281948 -93448.7 -72561.6 
97 1 22.2427 29.0249 0.921757 17.617 330935 870057 593534 69801.9 168827 -183877 
99 1 24.032 29.047 2.88529 0.32878 157230 -63506.3 576638 -384062 -124431 73988.8 
100 1 22.1484 30.866 2.75013 15.4815 409756 1.13718e+06 1.03363e+06 -419423 21820.1 -84427.7 
162 1 23.8658 30.8286 4.75485 0.329167 -543784 -90743.4 1.18196e+06 443075 -84566.8 -1619.88 
177 1 22.0544 32.3418 4.77133 15.7021 -126356 655617 1.38652e+06 270293 -16474.7 -121973 
101 1 25.8482 29.0448 0.914205 0.322461 -182203 -333521 325681 -422643 94446.5 135380 
103 1 27.5554 29.1054 2.82235 0.26187 -32512.9 95349.7 312425 291232 36743.6 -89123.4 
104 1 25.7606 30.8391 2.75965 0.38242 -477977 -368731 412725 -317480 -166163 132435 
166 1 27.4748 30.9496 4.79154 0.170258 -767270 -345735 1.05961e+06 -162301 123616 264994 
105 1 29.1621 29.1901 0.954706 0.278542 -287361 100873 512584 -406540 308088 -40431.2 
107 1 30.906 29.1958 2.83267 0.214164 -441969 -116076 301324 423889 -117908 -31408.5 
108 1 29.3132 30.9913 2.91263 0.529644 -228437 -419156 291350 523881 27687.6 143127 
169 1 29.273 29.2347 4.80283 0.309319 26639.4 -90316.8 600654 -335193 -203528 -39290.5 
110 1 34.3935 30.8588 0.914094 0.14966 -313238 -707626 1.00361e+06 187834 349089 -43096.1 
109 1 32.6764 29.1633 0.978925 0.319556 -240104 -44581.8 761556 -323156 43279.8 107870 
111 1 34.5209 29.0797 2.82446 0.635669 337553 223402 312619 -57987 -11634.5 155487 
112 1 32.6365 30.9955 2.89898 0.316446 380991 20363 489557 -122869 7641.32 22261.4 
174 1 34.4396 30.804 4.77604 0.61078 -174402 -55232.6 908987 547289 106888 65102.3 
173 1 32.5046 29.1659 4.73327 0.878211 672830 520444 925344 -11552.4 -111893 95482.6 
114 1 24.033 34.2974 1.00882 0.528746 -731921 -422094 589307 182258 -247940 -158368 
115 1 23.9311 32.5066 2.85347 0.163372 -634645 -361098 260844 -128919 -115908 29566 
116 1 22.1585 34.2134 3.03428 15.0948 211541 1.45756e+06 1.58879e+06 -58005.6 -475019 115461 
1355 1 23.8484 36.0057 2.99101 0.608651 -44093.7 723990 1.18558e+06 -248709 70088 -165766 
1357 1 25.6213 36.1403 1.00679 0.305357 4052.73 -688207 516207 -412209 -48489.5 -77514.1 
1359 1 27.3856 36.0931 2.87532 0.106554 86593 -450505 271902 321955 -29428.1 -1268.01 
117 1 25.6779 32.6213 0.942631 0.143137 -1.00461e+06 -1.2048e+06 -28811.9 391189 -278979 60479.6 
119 1 27.4344 32.5444 2.79746 0.421341 -677671 -360542 277391 -112050 140743 93760.3 
120 1 25.667 34.2893 2.83558 0.219095 -52185.7 -107332 251750 -2088.49 -519356 -89594.5 
182 1 27.4004 34.4334 4.78839 0.306966 -58912.4 288135 778107 342029 -177996 162287 
181 1 25.7142 32.5761 4.78775 0.264892 350016 276511 1.29394e+06 300756 45734 142993 
121 1 29.125 32.6839 0.950283 0.399173 -171101 -153044 739250 -90260.9 416197 112351 
1433 1 29.2973 36.1317 4.81014 0.475039 -113567 -104147 752391 242357 108623 38710.9 
1363 1 30.9333 36.1154 2.84061 0.165746 -254150 -47854.9 625140 -55514.8 158650 -32848.3 
123 1 31.0088 32.7939 2.94723 0.627003 -637104 -659498 600036 -301485 115954 -137466 
124 1 29.1128 34.4185 2.85324 0.244804 -15352.2 -135925 730861 271496 5454.26 -51568.6 
1367 1 34.371 36.1486 2.84616 0.203183 -398069 -255819 793849 177923 -111739 -184851 
125 1 32.7064 32.6479 0.935412 0.236952 67143 -100476 524272 -196685 -128801 178391 
126 1 34.4094 34.4255 0.934351 0.180346 -162145 -68029.2 444739 -219802 247836 208133 
128 1 32.7048 34.4122 2.74117 0.431313 -1.01879e+06 -814332 670564 -477432 437134 -81631.8 
127 1 34.4583 32.7137 2.86642 0.168909 -194253 -3900.96 749806 91282.8 -52602.4 97869.3 
189 1 32.7605 32.679 4.80718 0.209084 -339791 -553354 411195 -172628 -132924 -151733 
129 1 22.868 21.9248 4.90222 30.2794 936508 562794 903996 -193382 26189.6 -338050 
131 1 24.2428 22.1168 6.93441 17.745 151296 97726.9 1.04796e+06 -33334 -790867 -98584.2 
132 1 22.494 23.7078 6.54149 17.2844 283604 -113751 968785 136642 11794.9 424129 
194 1 24.3298 23.9127 8.69304 1.903 -1.52363e+06 -1.34163e+06 104181 -1.02835e+06 -184243 -116954 
133 1 25.7837 21.7465 4.82785 17.9079 1.92643e+06 858005 1.95364e+06 -159140 240722 23259.5 
135 1 27.6099 21.9826 6.79476 15.6521 670638 -327494 1.36173e+06 -88334.1 327670 783.963 
136 1 26.0143 23.7888 6.80545 0.643249 -760451 -810333 361525 -489246 459081 192523 
197 1 25.9286 21.9344 8.69227 17.725 1.09625e+06 462921 1.2616e+06 -200653 -216983 127918 
198 1 27.5837 23.7585 8.72234 0.264413 -438722 -717672 404398 -157067 -121577 1034.1 
137 1 29.319 22.0293 4.85374 15.9196 1.46656e+06 434642 1.45846e+06 -224675 260320 -12849.3 
138 1 31.0234 23.7856 4.86641 0.295772 -509412 -257722 239718 -114870 174809 -198524 
139 1 30.9836 22.0282 6.89732 17.215 1.1536e+06 164557 1.4145e+06 -24436.2 -205459 -108044 
140 1 29.2016 23.737 6.76285 0.29992 -179371 -516807 675853 -380774 -6653.43 -72737.7 
202 1 30.7629 23.8201 8.70081 1.13103 -562414 -897122 518082 49266.8 201886 -86085.4 
141 1 32.789 22.0321 4.95341 15.1032 979471 -40448.2 1.12727e+06 -215706 11081.7 -388209 
142 1 34.5161 23.706 4.84859 0.589508 135225 -339584 843727 -568662 237231 19999.8 
144 1 32.7213 23.7306 6.7166 0.336078 -360222 -1.05034e+06 246063 -252864 -348489 -464097 
143 1 34.4831 22.0496 6.82405 16.7925 872341 -41414.3 1.44587e+06 -102009 -397128 40705.3 
206 1 34.3756 23.81 8.69498 0.3739 -735639 -766309 551504 -265426 -190075 84210.7 
145 1 22.5153 25.585 4.9108 15.5537 446009 1.20551e+06 1.00137e+06 -3380.28 -108236 6602.35 
147 1 24.1552 25.5145 6.7686 0.479787 -17005.4 557348 886294 3259.24 -295510 229416 
148 1 22.4072 27.2763 6.85967 15.9907 529352 1.37602e+06 1.97085e+06 -143347 -146820 -271710 
149 1 25.8556 25.7309 4.90303 0.985674 -264739 -391426 745799 -375007 -63391 66728.2 
151 1 27.4955 25.582 6.77635 0.215648 -161439 -78695.6 710381 -774564 -133249 36938.9 
152 1 25.7174 27.5116 6.81552 0.705708 491605 166622 496044 -67265.2 -166876 -491701 
214 1 27.5964 27.3732 8.72785 0.276164 -406742 -486015 711415 126491 146503 32178.5 
153 1 29.2171 25.4962 4.83767 0.18657 -258766 702.176 224319 -75558.8 -163396 77175.6 
155 1 30.9417 25.5279 6.68485 0.372989 255508 3934.51 509261 109457 -340489 53499.3 
156 1 29.2626 27.3429 6.8115 0.105083 -148949 102538 715692 -148651 252985 -117706 
218 1 31.0142 27.3718 8.73672 0.225075 530762 450661 1.0774e+06 -32233.3 -61112.4 124012 
157 1 32.8057 25.5251 4.83003 0.656549 334448 521753 732942 -194620 -111887 -76646.5 
160 1 32.661 27.3862 6.74694 0.344642 570022 591279 1.20279e+06 18974.3 -211439 -12290 
159 1 34.3619 25.501 6.77061 0.161086 -357350 -317094 329099 -483796 -187300 29212.8 
221 1 32.5856 25.3929 8.67152 1.30099 -346983 -88096.3 844376 44562.5 179907 15627.2 
2883 1 36.092 25.5629 4.86631 0.188025 -588554 -741469 1.02333e+06 69054.9 -40685.8 145957 
2886 1 35.9013 27.3696 6.88242 1.21238 58842.9 208183 683648 84340 -100201 -259739 
161 1 22.1494 29.1297 4.92542 16.8943 675604 1.72081e+06 2.04338e+06 -463152 -5646.23 -158178 
163 1 23.9286 29.1841 6.89383 0.489604 -685230 -85208.9 1.09526e+06 72419.2 36387.5 -241700 
164 1 22.0923 30.7542 6.93418 15.9957 -21139.4 446023 1.16082e+06 -28743.9 -123395 -359406 
165 1 25.7714 29.3084 4.88777 0.921344 -177631 -429380 934438 -858671 -151559 -132245 
167 1 27.5501 29.1787 6.86928 0.333273 -311854 -168200 723288 -168309 -2134.49 45702.3 
168 1 25.7611 30.8658 6.77062 0.307394 199587 105320 546198 307253 38624.9 -263510 
230 1 27.4974 30.9844 8.68841 0.234677 303585 -21902.4 333096 -138720 -74224.1 86064.3 
229 1 25.7984 29.1034 8.69413 0.30974 178535 -39803 402690 -7550.95 76827.8 -333177 
170 1 30.8983 31.0234 4.844 0.227873 -822710 -574571 109042 104860 -33544.8 36055 
171 1 30.8979 29.1386 6.71811 0.231942 -6676.59 127451 707962 127553 112906 64330.9 
172 1 29.2309 30.9514 6.76643 0.0863796 -312819 -354714 642101 -113138 299893 -31647.3 
233 1 29.281 29.1831 8.72762 0.0624112 -220859 59549.7 390874 -247376 52676.4 -1378.7 
175 1 34.3626 29.2259 6.78317 0.419944 274363 18949.2 1.22814e+06 179204 -123896 90234.1 
176 1 32.6475 31.0399 6.77112 0.510134 -403970 81985.8 1.13017e+06 402302 113419 200971 
2973 1 36.0732 29.1252 8.73508 0.252638 252732 -62813.5 1.05846e+06 522667 -23846.1 64027.4 
178 1 23.7153 34.1321 4.92041 1.12574 -96119.3 888268 479664 -284743 -359977 212958 
179 1 23.8279 32.4328 6.78246 0.443157 -281805 71174.4 895969 -117195 113784 302702 
180 1 22.062 34.1589 6.75943 15.4 209931 1.46273e+06 1.52929e+06 27451.5 255587 191780 
241 1 22.0856 32.4795 8.64441 16.9622 336477 813142 596894 135698 79452.5 -281327 
1427 1 23.6148 36.1113 6.84433 1.0082 -80907.3 201246 973333 461984 87631.1 143224 
1497 1 21.9439 36.1395 8.71692 17.7553 59136.6 1.31292e+06 1.59925e+06 -380217 268129 339301 
242 1 23.7675 34.4104 8.74122 0.371957 5370.34 771071 774768 32522.4 315954 424230 
1431 1 27.3212 36.1318 6.74492 0.201489 128383 97622.9 494776 224741 -256218 120806 
1429 1 25.5225 35.9842 4.88166 0.485523 315285 466685 984351 441060 -372739 176894 
183 1 27.5236 32.7369 6.894 0.778661 182426 -327491 840687 -539581 183587 198370 
184 1 25.4518 34.3348 6.82005 0.546934 997309 766065 836857 -140462 -65612.3 382248 
1435 1 30.9655 36.039 6.86768 0.359104 -5200.83 -98094.6 627949 -172725 -68567.6 28562.2 
185 1 29.2008 32.7329 4.83339 0.172596 -291533 -393174 683480 197718 123804 -164170 
186 1 31.0372 34.385 4.82909 0.248088 -122523 -618501 752132 -13211.8 39119.4 -413686 
188 1 29.1222 34.4325 6.72257 0.409976 -436779 -439431 828144 -715111 -80548.8 -62492.9 
187 1 30.9618 32.6792 6.86363 0.253108 -351904 -715494 601167 147043 190868 -176175 
250 1 30.9552 34.3997 8.68784 0.460802 14433.8 -305252 670395 -639105 114828 288438 
1437 1 32.7119 36.1418 4.83573 0.0773013 -167541 -340924 1.05408e+06 160931 85237.7 250119 
190 1 34.4015 34.4298 4.8559 0.278778 -566028 -695081 516143 -164250 184342 -105025 
191 1 34.5154 32.5665 6.7923 0.397641 -255350 -18204.8 941963 47077.4 127508 12630.2 
192 1 32.7981 34.3155 6.83893 0.259447 -451311 43893 614975 -196445 161759 -118107 
1439 1 34.4989 36.05 6.83057 0.236496 -97698 -472204 846533 -6360.17 30816.5 -167855 
254 1 34.5647 34.3002 8.7204 0.466514 -167525 -253629 545451 -236364 -366968 155735 
2919 1 36.1461 32.6415 4.8772 0.339025 360734 233985 540615 456803 123261 -370080 
193 1 22.3216 22.7138 8.77078 22.0351 88099.9 361487 620021 -472308 -130185 138423 
195 1 23.9998 22.1293 10.5872 20.6382 725777 586440 1.75583e+06 163767 48717 73979.3 
196 1 22.3928 23.9038 10.9331 17.9279 28640.4 -300971 302238 -121999 -256503 201179 
199 1 27.6059 22.0643 10.8207 15.7811 741852 391451 896148 162057 -14729.6 -68324.3 
200 1 25.8564 23.8162 10.6164 0.330547 -25185.8 -29808.4 517445 263136 -497740 273913 
261 1 25.6919 22.1158 12.6487 15.6893 1.33267e+06 284662 1.45305e+06 -166783 358441 88322.8 
201 1 29.1719 21.9788 8.91462 16.2553 912679 -119247 1.24082e+06 197897 186932 -106794 
203 1 30.9926 22.1385 10.7706 15.5264 694605 70283.3 743292 193030 251312 -207970 
204 1 29.3135 23.8875 10.684 0.628689 -827750 -1.18527e+06 98102.6 500617 -48911.6 104315 
266 1 30.9456 23.8748 12.6142 0.195573 358693 -210678 486313 203982 -274899 109146 
205 1 32.5374 22.099 8.89874 14.916 937771 605121 1.03374e+06 85921.5 37198.5 -125651 
208 1 32.7392 23.9 10.7394 0.553191 110991 -488669 898370 66782 115387 12681.1 
207 1 34.3588 22.081 10.7276 17.2558 993545 81242.2 1.52473e+06 -91796.4 -44572.1 53958 
2940 1 36.042 23.7987 10.6352 0.607832 149244 -689033 646798 45221.8 15690.8 93334.2 
210 1 24.0907 27.3004 8.83412 0.365446 -114916 424086 649792 248207 296252 129239 
209 1 22.3598 25.3279 8.85818 12.2693 319458 1.30791e+06 1.48522e+06 297454 -264187 31878.4 
211 1 24.1229 25.5528 10.6529 0.640922 -466212 127887 288324 -33447.5 -101081 404212 
212 1 22.255 27.2672 10.5484 14.9058 279902 1.20937e+06 1.31991e+06 -157570 147326 241539 
274 1 23.9669 27.441 12.5665 0.354398 85331.9 -14772.7 269755 -213642 -180416 434484 
213 1 25.8745 25.6454 8.80796 0.388659 -567598 -719468 898843 -611319 274516 38882.9 
215 1 27.6548 25.55 10.8076 0.74474 -696020 -475678 145138 274717 102070 220931 
216 1 25.9546 27.4204 10.7578 0.696778 563784 201864 481913 -57503.4 -133734 -145583 
217 1 29.1548 25.5682 8.81788 0.466761 -477304 -932901 621084 670551 61545.3 264095 
219 1 30.9836 25.6324 10.6931 0.250246 -139949 -3487.08 573069 -228756 -94653.5 141726 
220 1 29.224 27.4415 10.7309 0.171142 -313974 -271529 439127 32870.4 -227700 66547.3 
282 1 30.9085 27.5206 12.5819 0.345274 -506433 -364644 660061 -228544 -289390 183235 
222 1 34.1959 27.2831 8.76557 0.846941 12400.5 548794 31890.8 302359 565248 84740.5 
2955 1 35.9643 25.5087 8.83526 0.630513 -314019 -613265 217100 -473715 18553.4 -56845.3 
223 1 34.4265 25.6745 10.7822 0.663455 -1.26694e+06 -1.02826e+06 720273 -587514 385136 233951 
224 1 32.7586 27.3917 10.6717 0.548766 -363698 -115386 204897 124812 462980 333933 
2958 1 36.0637 27.2578 10.6816 0.573271 -721224 -643260 917191 -508510 396297 -105530 
225 1 22.2409 29.0615 8.83057 16.2352 236680 811540 778264 -243985 -82747 306136 
226 1 23.9593 30.8209 8.83165 0.433145 -217604 -361603 73724.8 -183941 -550790 -308081 
227 1 23.9797 29.0549 10.6984 0.279625 174083 114863 116472 -571752 -595469 186933 
228 1 21.9835 30.8313 10.6479 17.7194 1.04712e+06 1.5353e+06 1.5845e+06 -249215 83170.4 -413098 
305 1 22.1522 32.375 12.5986 13.4093 486345 1.02352e+06 1.28465e+06 74160.4 -44533.2 -30263.5 
231 1 27.6061 29.2443 10.6219 0.416728 -473278 -313586 530885 -332595 20604.5 84089.1 
232 1 25.6225 30.8954 10.6142 0.36353 142220 -93676.7 191304 -73748.9 -608409 226115 
293 1 25.7436 29.245 12.4586 1.1535 -699025 -508085 243551 75498.8 -322180 -114286 
294 1 27.4155 30.9766 12.6371 0.177601 -406886 -361070 740741 40028.1 -97403.1 134058 
234 1 31.0096 30.9243 8.7439 0.246027 -659637 -560045 672620 403800 29599.7 329313 
235 1 30.9688 29.2067 10.7064 0.113961 -289828 -507490 32083.8 -310369 228935 150392 
236 1 29.2579 30.985 10.6779 0.0836033 -435439 -900439 238352 -382733 -117949 252341 
297 1 29.185 29.312 12.5977 0.276606 -1.2451e+06 -1.20792e+06 51075.8 -631835 11051 27033.2 
238 1 34.4121 30.8815 8.79067 0.154965 306599 -53852.6 1.03764e+06 314522 120079 13737 
237 1 32.6273 29.2108 8.82452 0.283762 -443563 -609143 1.04504e+06 196856 256998 110884 
240 1 32.5947 30.9873 10.7925 0.414687 120586 -111749 236730 -152631 2729.78 7845.04 
239 1 34.4158 29.2057 10.7808 0.300173 419320 254122 655415 -277291 276.209 185710 
1499 1 23.6924 36.0947 10.907 1.18994 196630 364868 480124 -84534.8 112143 -88601.9 
243 1 23.8093 32.5753 10.5735 0.481555 -758487 -114132 642024 502221 189311 -335975 
244 1 22.101 34.2198 10.5944 15.7439 -23365.3 1.26308e+06 1.66486e+06 276484 220581 -55085.3 
306 1 23.7646 34.2656 12.6531 0.244414 33091.6 54461.8 670916 -71407.4 -98356.8 405366 
1503 1 27.3886 36.1247 10.6785 0.19376 -206353 -192635 580310 275309 1581.9 -85338.5 
245 1 25.6221 32.6848 8.75126 0.185789 286944 17040.6 695844 -258525 193729 243303 
246 1 27.3448 34.4298 8.75246 0.129258 160937 -115127 678813 -473737 -20921.8 -312032 
247 1 27.4368 32.6734 10.7183 0.156013 491299 367141 1.09779e+06 -68337.1 -88005.2 140242 
248 1 25.5422 34.3813 10.6966 0.131287 531334 595808 965438 -79331.4 -39772.2 -186042 
309 1 25.4504 32.4806 12.6085 0.870809 565262 652310 897666 591119 24324.3 1827.76 
249 1 29.2892 32.6834 8.79926 0.382689 -329624 -193202 360477 -512839 -63152.3 22139.9 
251 1 30.8764 32.7724 10.7955 0.490545 -1.04998e+06 -367197 405650 -206260 40200 -20760.1 
252 1 29.1289 34.4638 10.6527 0.233592 -106710 -180590 1.04289e+06 434686 -32173.8 5137.98 
313 1 29.2271 32.7053 12.6478 0.353651 143835 141824 277492 -92786.9 -23018 -247827 
1511 1 34.4225 36.1096 10.7503 0.144783 -796054 -433659 331235 -36271.3 -57428.3 12286.3 
1509 1 32.7789 36.0073 8.86932 0.478418 -43349.6 203697 557158 -112786 -289064 -88682.4 
253 1 32.7352 32.6936 8.95341 0.833683 -74809.8 -314486 659740 -76708.1 -108651 85804.3 
256 1 32.7389 34.326 10.8436 0.432936 -71429.1 -265747 432712 -393167 -9550.81 -14682.3 
255 1 34.5785 32.6698 10.7321 0.495919 -270252 -382341 760402 178203 -367143 63464.1 
257 1 22.6136 22.2763 12.6802 27.2924 834632 426092 1.052e+06 -225970 -71916.1 496849 
258 1 24.1947 24.0836 12.71 0.997164 -494716 -688989 992115 -965995 -392227 212509 
259 1 24.2345 22.2396 14.6373 19.8824 763710 601618 863666 -510221 -199004 -17528.4 
260 1 22.3107 24.0376 14.7531 16.6894 752979 1.08168e+06 1.17143e+06 -237918 -437978 30610.3 
322 1 24.0677 24.2146 16.4803 0.896246 -641625 -116312 507180 -468305 -119294 -101875 
262 1 27.3667 23.8814 12.6795 0.786814 217949 -634205 705165 352105 30143.2 104411 
263 1 27.4198 22.0665 14.6351 18.1661 1.39023e+06 776218 1.28442e+06 55113 368715 51462.5 
264 1 25.8432 24.0578 14.7007 0.476608 -270492 -322737 465.471 -590581 72444.2 381626 
325 1 25.8369 22.3374 16.5219 15.3625 494770 -36443.7 236041 -574817 -50517.9 262965 
265 1 29.1307 22.1063 12.7176 16.7149 1.03645e+06 733311 1.14894e+06 54581.5 -456277 1639.76 
267 1 30.8941 22.2236 14.5588 16.5931 941313 -17034.4 1.41907e+06 -56575.6 -51443 54441.5 
268 1 29.178 23.9389 14.6973 0.235185 -190912 -694286 973696 440612 76227.6 39900.1 
330 1 30.9614 23.9457 16.5363 0.314181 442787 206119 882420 338288 -316750 21346.4 
269 1 32.6683 22.0495 12.6911 17.9003 1.22653e+06 208880 1.46595e+06 -40696.2 21979.6 8675.99 
3012 1 36.0989 23.8542 14.5347 0.666926 -865115 -1.60056e+06 159545 -363826 -188157 -17619.9 
270 1 34.3612 23.8498 12.765 0.357875 -593472 -585818 496445 -72094.3 -234938 69387.2 
272 1 32.6159 23.9132 14.5941 0.155904 -345096 -96140.3 730064 -82189.3 2275.65 175789 
271 1 34.3632 22.2177 14.7625 15.3071 592956 -355411 783693 -109984 202402 -138402 
3009 1 35.9882 22.1232 12.7865 15.612 731288 -154024 1.20477e+06 335181 87017.4 -386017 
334 1 34.2981 23.9489 16.5125 0.731119 -427292 -1.04553e+06 416020 -198537 54661.6 -431177 
273 1 22.2457 25.7362 12.7217 15.5638 377198 1.19054e+06 1.36075e+06 -359593 -176953 -301429 
276 1 21.9812 27.3871 14.5694 19.8702 436546 956162 1.24908e+06 -372559 30981.3 -67811.1 
275 1 24.0493 25.8863 14.5386 0.626328 -211082 -47117.3 394670 -642665 -199223 233837 
278 1 27.5846 27.5012 12.6681 0.250182 -555328 -300929 -183435 -291663 -243753 -252939 
277 1 25.8452 25.7045 12.6596 0.312804 -701600 -952317 619529 -375342 142233 140184 
280 1 25.7406 27.508 14.4642 0.520414 -922510 -620269 775484 -630885 118913 -79332.2 
279 1 27.597 25.7217 14.6321 0.29577 -404030 -699850 591817 -267794 62571.2 264434 
341 1 25.7834 25.9628 16.5195 0.683136 -530344 -379102 694622 -243897 2977.71 -52730.8 
342 1 27.5864 27.5378 16.5558 0.357886 -1.0378e+06 -732045 615017 -281232 -141068 -127167 
281 1 29.2493 25.6514 12.6675 0.149854 -427488 228852 86499.7 306067 -432477 13865 
283 1 30.8046 25.7147 14.6176 0.547026 -435459 -145476 457179 -492553 185608 12802.4 
284 1 29.1808 27.5695 14.5663 0.255896 -955078 -492717 271755 85024.8 -379319 163934 
345 1 29.2998 25.7967 16.5673 0.311094 -432777 -120732 202246 135202 7220.51 -287133 
346 1 30.9541 27.5943 16.4323 0.969661 -476621 -526856 542098 -478389 167836 161400 
3027 1 36.141 25.5005 12.6966 0.422865 28795.9 173247 474855 -381366 2777.04 490610 
285 1 32.6233 25.7684 12.6698 0.413605 672528 432897 528717 223536 -45964 -175137 
286 1 34.5508 27.5358 12.7039 1.09774 271361 228309 574196 -23996.7 36010.8 -35105.8 
287 1 34.4471 25.6445 14.6383 0.176869 134253 12918.4 440323 242967 53280.2 5475.42 
288 1 32.6194 27.3354 14.6063 0.728488 182297 134183 454089 -161536 326639 -84782 
289 1 22.0277 28.9986 12.6764 17.8832 -23477.4 1.12255e+06 1.62975e+06 -427583 -177018 185945 
290 1 23.7982 30.5707 12.76 2.0991 -1.16945e+06 -295130 822296 129740 166563 30192.7 
292 1 22.0968 30.7765 14.6064 16.0777 407340 1.27751e+06 904647 55762.1 119596 389502 
291 1 23.8253 28.9306 14.5634 1.01435 -354483 -402548 227750 234900 -77137.5 414974 
353 1 21.9968 29.1252 16.4979 18.204 607112 1.27015e+06 1.54599e+06 -200270 116760 70732.1 
354 1 23.8501 30.7533 16.5372 0.322102 -224467 654777 1.10752e+06 55625 114802 69929.8 
295 1 27.4365 29.2159 14.5012 0.236971 -782612 -743127 590472 -6512.62 287611 -26822.3 
296 1 25.5737 30.8228 14.5951 0.252433 114257 -33414.5 643695 29780.6 -64730.5 322172 
357 1 25.8011 29.1813 16.4953 0.513722 -89948.3 -219486 695057 -38287.4 41081.7 342734 