ITEM: TIMESTEP
8000000
ITEM: NUMBER OF ATOMS
5780
ITEM: BOX BOUNDS pp pp pp
2.0392030483555885e+00 7.0260796951659970e+01
2.0392030483555885e+00 7.0260796951659970e+01
-2.3052074104210614e+00 7.4605207410436606e+01
ITEM: ATOMS id type x y z c_csym c_2[1] c_2[2] c_2[3] c_2[4] c_2[5] c_2[6] 
3 1 24.0694 22.1684 -0.318738 13.7538 -153743 153296 224881 -217352 -480617 -197076 
4 1 22.2088 23.7479 -0.473595 15.8479 420151 322992 1.01293e+06 76259.8 -100855 603936 
65 1 22.2154 22.3725 1.49273 30.1577 459831 58744.1 787314 -447512 114256 11998.7 
5 1 25.6829 21.9101 -2.19715 14.4355 1.52124e+06 906612 1.24553e+06 -36232.7 268147 -61895.2 
7 1 27.5241 21.9979 -0.387127 17.2506 1.2499e+06 603969 1.06916e+06 -133687 -138547 188256 
8 1 25.7469 23.9012 -0.344847 0.253352 -95163.3 -159636 933196 -210289 74622.5 241533 
70 1 27.5486 23.8794 1.53977 0.170218 35711.3 -216430 1.2231e+06 -2086 -129686 -76289.4 
6 1 27.4741 23.7381 -2.24645 0.283569 259352 -710509 197975 163310 -50167.5 -287991 
11 1 30.9654 22.0463 -0.508109 16.6103 1.27763e+06 372805 1.13182e+06 464237 177223 177875 
12 1 29.286 23.8043 -0.407418 0.180424 -460171 -412570 658012 -160822 27776 20737.6 
73 1 29.1513 22.0239 1.50951 16.0375 1.40919e+06 390766 1.17995e+06 335739 -315008 -139801 
74 1 31.0836 23.8171 1.42741 0.510865 -368204 -773564 249339 1.03793e+06 -225818 438934 
10 1 30.9685 23.8131 -2.29325 0.320492 -160744 -144968 -22849.6 218835 229080 84816.1 
16 1 32.8326 23.9518 -0.507022 0.866889 -580073 -797523 -41668.5 393639 258332 -92590 
15 1 34.4315 22.1001 -0.393975 17.6178 833916 258215 1.26533e+06 -7997.4 -84534.7 -33410.2 
13 1 32.7387 22.0978 -2.25481 16.2338 889276 356429 1.04369e+06 207574 188229 -127966 
77 1 32.6741 22.1418 1.48903 15.8742 138680 -454053 1.11119e+06 412744 15840.4 -127062 
19 1 23.9792 25.5362 -0.441883 0.384556 -191343 150512 427385 254446 148713 -26957.9 
20 1 22.1177 27.3144 -0.381345 16.7062 96480.5 272240 230021 -402538 -170195 199542 
18 1 23.888 27.3146 -2.29552 0.243173 -180321 -97582.7 243415 -268385 146512 75337.6 
81 1 22.1315 25.6124 1.36068 15.1934 277704 1.16809e+06 1.01061e+06 44616.7 108192 424389 
82 1 23.9519 27.3403 1.44486 0.403323 -99583.4 184477 260489 -139545 79664.9 135069 
17 1 22.1098 25.56 -2.20083 17.4271 520214 1.03227e+06 1.32971e+06 -152653 -231188 -46701.5 
23 1 27.5348 25.6237 -0.404862 0.269955 -498323 -54111 432743 -147214 -304082 261995 
24 1 25.7642 27.3247 -0.238244 0.620085 383431 -154846 51303.3 175805 396804 -191926 
22 1 27.5574 27.3997 -2.28978 0.339841 -211432 -577726 652437 -620415 198106 102374 
21 1 25.8755 25.7186 -2.19667 1.03822 -314898 -38761.6 124313 -414287 -22329.7 -61518.7 
27 1 30.9818 25.48 -0.329226 0.617887 -839985 -989310 119798 -381901 237289 164628 
28 1 29.2535 27.3498 -0.289211 0.267105 495037 338775 976763 -369094 -434280 139886 
32 1 32.5894 27.292 -0.459591 0.542125 -31512.2 -772734 8879.72 41797.6 151229 35163.5 
31 1 34.5234 25.6664 -0.480989 0.449114 -703446 -642820 183805 -869488 338774 -382402 
93 1 32.8173 25.6414 1.44679 0.708999 -840597 -617365 323108 6010.44 -450918 86049.6 
94 1 34.4215 27.3807 1.43422 0.309732 -390866 -939794 529371 -145769 -1923.75 330044 
35 1 23.813 29.0586 -0.36631 0.154641 -91576.1 170426 277654 -248448 68486.7 215491 
36 1 21.9146 30.7243 -0.328634 16.7239 797569 1.55295e+06 1.36965e+06 225111 -102656 45325 
98 1 23.7348 30.8229 1.51746 0.236439 377502 995567 971102 49883.4 89056.6 -208036 
34 1 23.8317 30.8851 -2.18315 0.302998 -276790 211862 698576 421899 79373.6 55371.7 
97 1 21.9536 28.9599 1.51705 17.2489 616453 1.23035e+06 1.04754e+06 2454.34 -93518.2 65937.6 
33 1 22.0361 29.0165 -2.21589 17.9917 511690 1.07489e+06 910178 81293.9 -126577 232745 
39 1 27.4963 29.228 -0.414345 0.466068 141793 80648 327597 -488662 114362 -199513 
40 1 25.5824 30.9984 -0.301385 0.392332 565867 140377 126708 -295649 -189687 -128350 
101 1 25.6804 29.1434 1.46119 0.483932 90647.2 -329012 358490 -67115.7 -188564 -69403.1 
38 1 27.4809 30.9565 -2.24176 0.370274 605615 -138771 205379 -73698.6 -90758.8 331005 
37 1 25.5808 29.1044 -2.13664 0.483247 326702 640770 735575 -36736.3 -5124.81 -51349.5 
102 1 27.4553 30.8799 1.46487 0.509847 -282778 -229133 353914 -224455 -60573.5 -300079 
41 1 29.2265 29.1683 -2.2735 0.101144 -579105 -716009 372912 -521619 262440 -145884 
42 1 30.8407 30.9182 -2.23368 0.361052 -268444 -610361 259048 -176857 147109 -63956.2 
43 1 31.0206 29.1588 -0.341977 0.378618 -685569 -116666 -332452 127377 388460 62173.3 
44 1 29.1934 30.9178 -0.354212 0.089452 -812208 -270606 -77661.9 -981504 179272 25168.3 
106 1 30.9685 30.8908 1.51656 0.17652 -381658 -670865 -95282 -865695 -47539.8 267067 
105 1 29.3205 29.2092 1.52061 0.437132 -42360.8 -520479 414959 -292469 100683 176684 
47 1 34.4842 29.0276 -0.391656 0.202851 201149 -418209 -19122.9 102821 65811.2 228210 
48 1 32.7476 30.9328 -0.378925 0.302601 -225197 -150138 336421 -257437 323779 -86559.8 
109 1 32.7078 29.0588 1.46179 0.408882 -380787 -93730 593523 270594 -200338 -81143 
45 1 32.5565 29.1263 -2.21615 0.578348 -95733.9 145725 253493 248424 270137 110925 
46 1 34.4568 30.7984 -2.23926 0.163138 -195080 390214 311608 -201958 291860 55901.1 
51 1 23.6831 32.7684 -0.375827 0.845385 -742005 -123123 66918 29868.8 89058.9 -418993 
52 1 21.8974 34.3453 -0.353364 19.5083 343301 1.00557e+06 1.29528e+06 623478 -151090 464222 
114 1 23.7703 34.417 1.45034 0.339645 -296408 -237479 -102534 -134002 288491 -427722 
113 1 22.0181 32.7143 1.46057 14.7454 10290.8 999768 920267 -219711 223215 465858 
1281 1 21.9922 36.124 -2.27585 17.8899 467191 1.1796e+06 1.66219e+06 61431.4 -113206 73912.3 
49 1 22.0047 32.4614 -2.23163 15.7936 161304 1.39416e+06 1.40918e+06 313654 -157144 -65039.4 
55 1 27.2658 32.7922 -0.408193 0.497752 -148516 5761.05 213428 -329782 -44302.8 -105935 
56 1 25.4227 34.3976 -0.348938 0.397712 -914284 -455370 368303 127437 259028 -50119.3 
54 1 27.2832 34.4966 -2.28623 0.390747 -388429 -591947 -39498.1 -298909 -185260 303367 
53 1 25.5487 32.7042 -2.25538 0.176725 234870 -235586 105943 -126355 -182775 183315 
118 1 27.223 34.3966 1.52812 0.241458 187012 -195188 500043 -115044 -9457.56 -39236.3 
117 1 25.6162 32.5954 1.53842 0.583391 63987.7 -196574 -183178 -315113 -74865.2 -379079 
1287 1 27.3272 36.0983 -0.345645 0.398978 -207801 -200636 -335749 172940 85032.5 45138 
59 1 30.9159 32.5837 -0.301427 0.553981 -125695 -308267 442301 -225476 -191941 -243190 
60 1 29.1303 34.4292 -0.43767 0.233082 -258442 -343772 326202 -213175 -277583 -36380.2 
122 1 30.8804 34.4302 1.40933 0.221082 124779 -201601 612469 -86421.2 -240138 -160845 
1291 1 30.8701 36.132 -0.560306 0.337543 -333217 -317977 -150404 -673306 -351997 81258.5 
2847 1 36.1457 32.684 1.52577 0.321442 -554446 -417332 -657615 -42080.4 -3943.56 165299 
1365 1 32.6432 36.1235 1.25304 1.19883 -354872 -508811 306097 -112343 2374.84 451415 
64 1 32.7793 34.3242 -0.476172 0.434212 270102 -245854 -299029 31706.9 94350.8 -219939 
63 1 34.5337 32.6028 -0.323695 0.301968 -1.08144e+06 -1.00615e+06 177738 -174114 -240207 90512.9 
126 1 34.4461 34.4955 1.47228 0.460994 -471765 -431449 53425 196077 -82264.8 -195117 
125 1 32.6724 32.6961 1.52576 0.222216 432465 120507 386569 -237562 -115394 -36707.4 
1293 1 32.808 36.087 -2.27924 0.502451 -324005 -150993 166258 -388623 -21218.3 -145182 
66 1 23.9458 23.9303 1.55873 0.20803 -329137 -461441 730843 -501634 201612 -338624 
67 1 23.93 22.2014 3.62523 15.4903 1.18523e+06 518155 1.9093e+06 -327752 -142603 -221510 
68 1 22.1206 23.9435 3.35063 15.6791 387144 265884 841295 -238835 279236 -335369 
69 1 25.7435 22.1115 1.5797 17.0312 1.53217e+06 717402 1.58544e+06 -101304 -409945 74192.1 
71 1 27.4201 21.9498 3.46778 19.5298 1.31836e+06 834658 1.19861e+06 93541.9 206270 -141057 
72 1 25.7393 23.873 3.5646 0.503909 310139 -2899.64 241904 -94781.8 -78169.3 -62031.7 
133 1 25.8343 22.1008 5.33999 15.698 927150 128042 629762 -117174 147202 149629 
134 1 27.5764 23.9033 5.22219 1.01884 -359179 -125594 665925 -81647.1 -271037 181606 
75 1 30.9726 21.9068 3.36052 18.9974 1.16837e+06 191024 1.7955e+06 101827 174587 -32816 
76 1 29.3531 23.6928 3.39854 0.693458 611723 -252622 792167 325867 190585 87404.9 
78 1 34.3936 23.8419 1.59154 0.393431 -29384.5 -884882 609488 -73906.7 -327652 113278 
80 1 32.5655 23.778 3.49074 0.991734 -111642 -197770 575985 549409 162034 -266899 
79 1 34.3351 22.1888 3.42719 13.2963 127040 -362589 409375 29703.4 224292 302463 
83 1 23.8819 25.6344 3.38387 0.320199 182713 504474 606579 -180408 170157 -267803 
84 1 21.9524 27.2703 3.39633 19.0715 560240 1.3525e+06 1.76936e+06 -227350 -75671.5 240085 
145 1 22.1695 25.4881 5.33069 13.3607 90413.7 763451 564988 24000.9 80016.3 263562 
146 1 23.8009 27.3359 5.33858 0.27768 339852 256499 734723 -422516 166757 -50761.6 
86 1 27.4443 27.4348 1.77089 1.42054 -456041 -237899 166449 -153802 -43250.8 67790.7 
85 1 25.8238 25.6667 1.62567 0.518572 152056 -237381 752619 -134213 34901 109779 
87 1 27.7017 25.6465 3.45834 0.752928 470656 -105700 -444219 -201123 79181.4 466346 
88 1 25.6827 27.4921 3.41926 0.547355 -242210 189596 113434 -277865 409452 -59036.8 
149 1 25.7798 25.6791 5.27245 0.358413 541826 33548.9 727439 -399141 86456 -586556 
150 1 27.5586 27.4574 5.27699 0.491581 58363.3 436456 644452 -172198 387885 -73769.1 
89 1 29.2796 25.5591 1.56224 0.157411 -854879 -106496 -148193 -654105 148937 121721 
90 1 30.963 27.3039 1.55231 0.349315 -547796 -240683 -5054.25 -262553 33892.8 388490 
91 1 30.9291 25.6341 3.39272 0.495936 47566.1 -206541 585116 -58207.8 -348631 290340 
92 1 29.3124 27.524 3.43771 0.607544 -170029 180248 400466 -217253 187177 50272.4 
2814 1 36.147 27.3553 3.50331 0.261253 -491564 -376155 252855 564919 138029 -64809.9 
95 1 34.3638 25.6526 3.3978 0.422741 363161 346417 206104 -150875 -84083.8 -483609 
96 1 32.6201 27.4039 3.54891 0.540745 -281441 -349481 666633 -362683 -138035 18070.5 
158 1 34.4319 27.2275 5.36013 0.620017 272543 302355 506012 -192110 69299 116122 
99 1 23.7114 28.9702 3.38586 0.596879 256448 434590 1.04775e+06 -117195 -108022 40242.6 
100 1 21.9193 30.8687 3.32798 16.0901 769017 1.8694e+06 1.77337e+06 -56082.8 91388.3 -15259 
162 1 23.6896 30.8003 5.28544 0.495107 -119676 586558 1.49016e+06 -154677 294035 -103788 
103 1 27.3577 29.2416 3.46933 0.47343 3313.6 -618624 495190 -128149 -91291.2 -254133 
104 1 25.5005 30.7876 3.4404 0.325811 -20263.4 59470.5 972732 -12547.7 -72915.6 -125691 
107 1 31.0186 29.3522 3.55522 1.03813 -826203 -384869 370228 -336230 -192984 154691 
108 1 29.1777 30.9661 3.41305 0.235924 -467152 -184721 570244 -296916 -286124 145847 
170 1 30.8095 31.1096 5.34211 1.09855 -189578 -48861.5 328448 -333312 -21494.8 -253517 
110 1 34.5453 30.7884 1.55091 0.37603 -400269 175500 37175 -87956.7 232437 26766.6 
111 1 34.3821 29.0499 3.54834 0.565406 -277048 -280137 786375 111248 131067 150613 
112 1 32.7753 30.8984 3.35178 0.614615 -193315 -1751.96 785986 -692812 -21756.8 298417 
173 1 32.6948 29.2337 5.38202 0.325553 45964.7 386239 -28083.1 -695214 58948.5 -260026 
174 1 34.4893 30.9309 5.38096 0.139858 -528791 -496581 320009 27137.1 77471.1 -161789 
115 1 23.7595 32.6502 3.36495 0.337834 -91184.7 -94584.1 1.18617e+06 340908 32174.5 -133326 
116 1 22.1154 34.3363 3.58725 15.0062 -64667.1 786428 1.45027e+06 303282 -142909 -41066.6 
1355 1 23.7823 36.1275 3.34322 0.667788 -836815 281895 253886 74660.2 65387.6 67295.9 
119 1 27.146 32.5618 3.46643 0.772608 134622 105182 431704 -96934.8 -148715 119233 
120 1 25.4889 34.3933 3.43723 0.0765961 -164648 -157070 850907 136211 12718.2 -78548.8 
182 1 27.2194 34.4005 5.37774 0.170737 149083 223737 831153 60713.8 20684.8 178309 
1433 1 29.0751 36.053 5.33161 0.317594 281057 181819 704507 -462571 -84110 -221129 
1363 1 30.7881 36.1227 3.35404 0.263478 260878 325319 1.01142e+06 -55020.5 -204792 -267462 
121 1 29.043 32.7232 1.56533 0.412807 177424 24678.9 410342 -311444 -288123 114791 
123 1 30.773 32.7353 3.38871 0.705402 -268869 -278613 455067 -677956 -266161 -31389 
124 1 28.9947 34.4184 3.49833 0.282871 169061 -138295 707924 464739 157487 -520341 
1367 1 34.2345 36.0492 3.42304 1.07469 -265347 -658425 483801 -305703 230482 38567 
128 1 32.6151 34.3429 3.44869 0.439626 -261701 -209237 943312 -748473 77760.8 -143932 
127 1 34.558 32.6754 3.45964 0.324258 -361202 -353196 460578 34517.8 226861 -119252 
189 1 32.7904 32.6559 5.37873 0.55663 -490219 -428576 517179 666667 -262096 169617 
190 1 34.573 34.4374 5.29697 0.74482 -83415 -480300 144139 -420086 155806 323387 
129 1 22.1185 22.6336 5.53122 27.123 -28333.2 -214262 -81537.5 -412641 -298649 -925603 
130 1 24.0698 23.9571 5.40293 0.70536 -969623 -1.01991e+06 83872.5 -589386 521042 222867 
131 1 23.9528 22.309 7.1704 15.2096 554413 196018 1.3701e+06 -306334 -304319 548840 
132 1 22.1852 24.068 7.26863 14.8068 191818 -667807 -711577 -200783 3324.17 -638646 
135 1 27.4779 21.9231 7.29412 19.2603 1.02514e+06 262646 1.69734e+06 108057 11767.5 -30468.2 
136 1 25.8969 23.7541 7.29313 0.970257 351632 -8645.81 1.09236e+06 -416348 -481126 -36841.2 
197 1 25.7055 22.0838 9.19571 16.712 1.54406e+06 591871 1.29212e+06 -386964 -173646 134438 
138 1 31.115 23.6799 5.49993 1.13471 188453 26983 721226 -774633 187379 123228 
137 1 29.2786 22.1242 5.41775 14.8417 888731 -119278 1.03983e+06 -126914 -122131 -149684 
139 1 30.9504 21.9294 7.32142 17.3518 1.48197e+06 150031 1.21388e+06 -192524 -343165 -66309.4 
140 1 29.1762 23.7444 7.27927 0.287693 188473 -367130 562651 392639 6169.7 -524685 
202 1 30.8684 23.6031 9.20585 0.499874 708968 313105 598760 -350556 342448 -292004 
2865 1 36.0004 21.9419 5.42556 14.8039 1.39899e+06 234588 1.38491e+06 -139852 68695.3 -311962 
141 1 32.9504 21.924 5.42932 14.9115 1.20457e+06 275267 1.07979e+06 -339003 74917.1 27898 
142 1 34.3815 23.8671 5.42841 0.592606 340729 -109177 1.06551e+06 -239438 -334777 -263952 
144 1 32.6854 23.6719 7.47599 0.541473 75031.6 -151396 534163 102769 -77721.8 -350174 
143 1 34.3763 21.8998 7.4118 15.8063 337365 292085 379920 91147.2 158808 -154924 
205 1 32.7839 21.7493 9.20556 18.5228 1.31843e+06 911357 1.22016e+06 -241688 315646 242508 
2868 1 36.1392 23.6621 7.224 0.537782 313994 78627.8 554708 -375971 127901 -214260 
147 1 24.0182 25.6813 7.30451 0.409749 403856 632219 777802 -465935 -174226 -252620 
148 1 22.0653 27.2855 7.24796 11.3677 199311 1.51562e+06 1.51265e+06 -202915 97402.2 -178377 
210 1 23.8625 27.2726 9.20404 0.210826 -350039 -803553 111923 308648 -115285 116450 
151 1 27.6133 25.5456 7.35785 0.622036 -996871 -909479 584122 65574.1 -278056 52965.5 
152 1 25.9224 27.283 7.18894 1.84094 86764.3 -577772 102085 -315953 -31647.3 310672 
214 1 27.432 27.4195 9.2103 0.497895 -373429 -280111 374247 -403536 13755.3 81412 
213 1 25.7724 25.6856 9.22694 0.337582 -290502 -152089 410882 -320169 -181324 149740 
153 1 29.3283 25.6092 5.38769 0.16624 211014 532272 443242 -520464 -230913 -219042 
154 1 31.0002 27.4509 5.49754 0.332336 -440854 -424731 223569 44194.6 192852 -298820 
155 1 30.9677 25.5443 7.37043 0.166045 -334579 -83709.1 306990 133519 61367 -184636 
156 1 29.2484 27.2589 7.31123 0.540838 -243473 -383152 390746 -457536 115201 85527.6 
218 1 31.0339 27.3532 9.15355 0.423621 54891.2 79963.6 -281534 -168892 404590 112218 
217 1 29.1914 25.5695 9.18723 0.157647 -792907 251930 -817798 -264599 -391462 135584 
157 1 32.6079 25.6162 5.42234 0.38888 -128683 -349128 943410 -148932 190928 -86263.8 
159 1 34.4393 25.5609 7.39395 0.253554 594843 410707 1.03202e+06 -32838.7 34607.9 -228007 
160 1 32.6771 27.3241 7.38033 0.134147 -641105 -32877.2 328851 194170 148401 -263059 
161 1 21.9647 29.1005 5.38831 17.5492 446158 1.25279e+06 1.65633e+06 -321946 67050.9 -191900 
163 1 23.8938 28.9202 7.30886 0.637138 -403506 216738 381651 -558973 225389 -35701.8 
164 1 22.09 30.6475 7.33114 15.1995 592995 1.18469e+06 1.22923e+06 15193.6 53365.6 -27018.2 
225 1 22.1457 28.9374 9.21478 15.0995 -108700 704738 669038 397578 -170085 412636 
166 1 27.3541 30.8829 5.41337 0.109091 199586 -318886 590241 136689 -201280 50489.7 
165 1 25.5894 29.0562 5.46295 0.493761 272861 379884 321819 -164234 276923 88655.9 
167 1 27.4097 29.2008 7.28668 0.375003 421614 66757.5 365269 -472612 -173415 5028.17 
168 1 25.4516 30.7981 7.40554 0.543301 -83481.8 -569217 435028 214832 389429 66387.9 
229 1 25.5514 29.0229 9.2232 0.364319 -206707 -337088 580821 -38393.4 -47273.1 325638 
169 1 29.2746 29.2589 5.42423 0.400217 -90078 -206367 746521 -274905 137809 -244574 
171 1 30.9823 29.0844 7.34292 0.37592 202063 -229076 260249 -43170.6 -38904.3 -268778 
172 1 29.1841 30.9935 7.26948 0.477284 -135130 -680678 -7646.58 -760498 26633.5 -313711 
233 1 29.1509 29.1912 9.21721 0.385964 -278660 52383.3 945721 -325395 103175 -34156.2 
175 1 34.4117 29.155 7.35952 0.166849 352827 572404 913634 -45634.1 207293 47530 
176 1 32.6377 30.9393 7.2481 0.403187 558651 235459 832448 -65622.3 257350 -83667.9 
238 1 34.5679 30.9626 9.20374 0.481442 371942 184338 1.07335e+06 -65777.4 311769 -225857 
177 1 21.9844 32.5153 5.40335 17.3532 689900 1.49508e+06 1.88552e+06 409817 57046.1 185700 
178 1 23.8161 34.3545 5.42933 0.241206 95204.1 906509 681576 139276 -391706 -59533.7 
179 1 23.7974 32.5191 7.37767 0.195906 -154498 57253.9 919930 251256 249143 352985 
180 1 22.1079 34.4393 7.37674 17.4182 601840 1.47324e+06 1.57729e+06 -95.5676 -45584.2 -106695 
181 1 25.5283 32.5043 5.42737 0.385079 109890 364586 807022 178848 188757 -49347.3 
183 1 27.2376 32.6247 7.3285 0.136545 233990 576437 425841 -15974.4 -12885.7 -194024 
184 1 25.4119 34.3995 7.33693 0.374332 46947.1 62412.5 493560 -50162.7 -281517 -345334 
246 1 27.239 34.3898 9.21409 0.193659 -331381 -403333 346904 6647.04 58710.2 89197.2 
1501 1 25.5818 36.1405 9.14049 0.340629 -642603 -805555 251940 -108685 371176 -97674.6 
1505 1 29.0348 36.0552 9.19225 0.38499 51057.4 -15152.9 485008 119518 39744.1 109585 
1435 1 30.9696 36.1155 7.23642 0.496497 13469.2 -159994 490621 260989 265730 287677 
185 1 28.9942 32.7224 5.46731 0.564068 -534693 -554197 518302 198620 93489.1 138470 
186 1 30.9696 34.1994 5.419 1.69557 -183236 355218 380878 39591.4 -105073 -215247 
188 1 29.044 34.3996 7.33603 0.223039 194601 -113282 335033 283280 -98528.8 -333756 
187 1 30.7738 32.694 7.42306 1.07878 -402740 -946184 736.063 -384495 74203.3 -354927 
249 1 29.037 32.5777 9.17878 0.369102 417760 261649 108998 -15003.8 350239 -200690 
250 1 30.9611 34.4297 9.0926 0.786098 231768 -349257 283204 67063.3 -111643 -396704 
191 1 34.4876 32.6808 7.1822 0.296238 -113499 57453.7 397026 -122837 -190424 -130039 
192 1 32.7007 34.4399 7.19316 0.524611 -294793 154861 607950 338970 -232397 -177322 
254 1 34.4245 34.4833 9.17034 0.298583 527199 481191 735108 -73741.8 19395.9 254872 
193 1 22.2071 22.4864 9.24431 25.0744 209144 265269 1.23721e+06 -689171 -238631 -192653 
194 1 23.9037 24.0282 9.34169 0.898518 -922062 -327653 889142 -725821 -415564 -65926.1 
195 1 23.8286 22.1266 11.148 18.0352 778108 540735 1.21612e+06 173752 162282 54851 
196 1 22.1701 23.9227 11.2397 15.394 434961 170968 529831 168799 146445 -115924 
198 1 27.4757 23.8118 9.23342 0.179718 91861.2 -2678.88 311640 -456976 -298665 62694.2 
199 1 27.2407 21.9467 11.1463 17.1583 1.47854e+06 795209 1.46451e+06 68588.6 106094 -28961.2 
200 1 25.6367 23.9245 11.089 0.312519 586137 246299 548617 146041 -294263 60467.8 
262 1 27.4748 23.8332 12.9965 0.339769 -9072.17 -81897.5 759798 -276991 99473.6 -96628.5 
261 1 25.6373 22.1831 13.0747 15.4568 801429 55463.6 798708 39235.1 240577 -206710 
201 1 29.1224 21.8197 9.32411 18.3083 1.75243e+06 752758 1.89558e+06 -184273 -46495.5 -207076 
203 1 30.9241 21.9538 11.2811 16.5226 1.16897e+06 381943 1.53271e+06 94179.7 -186675 -49087 
204 1 29.165 23.6664 11.1298 0.321605 182721 221362 803263 197399 161075 -139669 
206 1 34.4867 23.6242 9.34366 0.435393 38883 -647367 439579 341120 -91063.8 -259398 
208 1 32.7054 23.7046 11.2049 0.263892 -155224 -595685 526126 24761.4 -8253.08 210739 
207 1 34.3609 21.974 11.2415 15.6032 902798 -62135.9 1.16277e+06 367394 -37064.6 140652 
270 1 34.3985 23.813 13.0512 0.449092 403056 208328 486628 -158935 5941.61 -284447 
209 1 22.0233 25.5362 9.34155 15.8187 236029 1.09408e+06 1.11384e+06 305491 -146925 -145825 
211 1 23.923 25.7657 11.1575 0.684381 -96238.2 -449411 -22290.8 -234280 -142312 -465476 
212 1 21.9806 27.3439 11.0825 17.4507 251685 721549 1.13008e+06 -224551 63516.2 -43364.4 
274 1 23.8507 27.2027 13.0742 0.500681 29786 92565.2 51225.6 -317400 -25550 -147086 
215 1 27.5697 25.6373 11.0432 0.481307 163481 290164 361841 -14809.2 26856.8 48785.2 
216 1 25.7006 27.3556 11.1304 0.120327 -169350 -239963 249900 -479375 88819.5 -220157 
277 1 25.7848 25.5889 13.0637 0.371764 -482592 -384605 441294 -129228 -193308 -141841 
219 1 30.8556 25.4879 10.9633 1.10366 -422042 80915.1 445064 -43884.4 -100719 -14102.2 
220 1 29.3437 27.3963 11.1115 0.445578 59862.5 -76786.9 951692 84550.5 69121.6 -110578 
281 1 29.2295 25.5424 13.0387 0.147242 -10369.5 -2793.13 800720 143169 -148745 89874.4 
222 1 34.3932 27.2925 9.31989 0.243787 513680 162859 267516 111915 146671 52810.6 
221 1 32.6748 25.3897 9.28951 0.390495 -341417 150909 -373322 19579.5 -212678 -254119 
223 1 34.3911 25.4702 11.0182 0.769611 -388592 -434860 72951.7 90226.9 -119066 42943.3 
224 1 32.6845 27.1722 11.1867 0.57363 -240729 -261534 345443 392358 143132 4083.43 
286 1 34.4896 27.2417 13.0245 0.0923295 311262 279335 383006 471295 -28181.8 33644.9 
285 1 32.5294 25.4589 12.9856 0.878237 141070 -681849 276072 -107238 319379 231099 
226 1 23.8551 30.833 9.25852 0.206848 -779235 -118743 -48751.1 -98675 366846 228738 
227 1 23.758 28.9904 11.106 0.383217 -634557 56115.5 673098 -84399.7 -363167 -61689.1 
228 1 22.2136 30.8739 11.2155 15.2436 -208455 1.02922e+06 1.3048e+06 -82455.1 -130156 27656.1 
230 1 27.33 30.7718 9.26587 0.33239 -141757 -19944 856436 229630 -105289 -103602 
231 1 27.5018 29.0805 11.2283 0.534046 -33258.9 -492795 434877 -504261 9673.72 20002.1 
232 1 25.5343 30.7511 11.1742 0.225739 452396 496247 414767 71705.9 -326963 175420 
294 1 27.2229 30.8125 13.04 0.625059 139803 257861 324044 304899 108952 -195737 
293 1 25.5021 28.9725 13.0634 0.556448 353658 -411086 324400 -312548 -152664 290398 
298 1 31.0192 30.7877 12.9177 0.743274 -166290 -321550 569166 -465449 -17116.3 -230553 
234 1 30.9284 30.8216 9.29142 0.289365 -80858.5 -401657 632126 -347032 -155376 135039 
235 1 31.1348 29.1037 11.1191 0.79544 -192456 -694103 -179496 -740855 116934 -62945.9 
236 1 29.0665 30.8693 11.1859 0.405022 400330 245095 712487 -613331 -92519.3 -11869.9 
237 1 32.7656 29.1668 9.26328 0.349218 -352433 -55810.4 10226.5 215570 441534 -538861 
301 1 32.7599 29.0658 13.0284 0.177712 -672214 -136510 204133 47682.1 -133546 182531 
239 1 34.4852 29.0178 11.2156 0.27556 618928 394813 676180 189343 296702 -89310.4 
240 1 32.7743 30.8156 11.0864 0.276304 -551010 -827090 56948.6 -623433 68067.5 -88400.2 
1499 1 23.7553 36.1441 11.1463 0.425655 -516996 -574568 475462 230971 -194554 -60360 
242 1 23.7912 34.4481 9.30422 0.269143 -431702 206244 401542 -114165 21954 -180587 
241 1 22.0894 32.6153 9.23434 18.6026 407258 1.40761e+06 1.53269e+06 -21577.9 144907 141935 
306 1 23.7835 34.4731 12.9787 0.375009 -221536 546948 25284.4 -592142 212301 376704 
243 1 23.8545 32.6104 11.1589 0.106567 -294290 -96210.7 730872 -366051 251032 -59062.9 
244 1 22.072 34.4344 11.1753 18.1558 -172364 1.19498e+06 1.19347e+06 -396006 -42472.3 70143.9 
1503 1 27.4133 36.0561 11.2128 0.764619 -196162 -246738 133985 44451.7 10537.5 21017.6 
310 1 27.2373 34.3834 13.0378 0.45875 13727.1 -542636 13697.9 -482910 125426 14297.5 
245 1 25.5541 32.5452 9.32096 0.237102 -51621.9 48860.9 465842 -483036 157609 -77384.4 
247 1 27.3107 32.7141 11.1937 0.47004 97412.2 223074 482522 -34491.4 84350.7 -67889.5 
248 1 25.552 34.4737 11.1506 0.229967 -665476 -41605.9 313142 92970.2 -85578.1 -77182.8 
1507 1 30.8471 36.0758 11.1273 0.264197 37123.4 178880 592556 37286.5 337934 294422 
1577 1 29.1262 36.0484 13.0351 0.452681 198511 558099 634834 -13764 -170048 97272.2 
314 1 30.9519 34.3416 12.9443 0.690264 -363022 -427107 285100 283537 122816 213947 
251 1 30.9498 32.6349 11.1204 0.254872 444360 255292 336493 -22068.8 111560 -298154 
252 1 29.1104 34.3374 11.042 0.265736 -269482 -543519 737367 -99669.4 -147815 10620.6 
2994 1 36.138 34.263 11.172 0.570349 -477541 -232114 343895 -307761 113924 -86212.1 
253 1 32.6758 32.6353 9.28946 0.410173 68801.2 439552 854753 182935 -108995 59978.5 
256 1 32.659 34.4617 11.1706 0.278838 -208185 -173690 447171 140838 408342 86098.1 
255 1 34.4163 32.6569 11.1479 0.230941 -104227 -376617 588935 -692811 -271885 -194165 
257 1 22.3955 22.2326 13.0993 26.7217 423691 514010 748305 -272489 140866 2868.43 
258 1 24.005 23.9985 13.1514 0.819912 -640479 -807579 187075 -601838 -137064 -443867 
259 1 23.9841 22.1503 15.0228 17.1795 190309 184589 860653 -184286 -43605 303270 
260 1 22.1942 23.8577 15.0517 17.4467 187897 171345 988309 -214877 31206.1 194159 
263 1 27.3954 22.017 14.9124 16.2564 1.13207e+06 456439 1.63185e+06 74888.7 38081.3 98754.1 
264 1 25.7248 23.8149 14.98 0.275802 -327545 -663575 369774 -357598 -413971 -92155.9 
265 1 29.2349 21.8929 13.2005 17.75 1.27804e+06 661709 1.08457e+06 -213336 148295 -60627.5 
266 1 30.8853 23.7643 13.1143 0.212938 -539577 -805200 650205 -241452 44573.6 -265585 
267 1 30.9587 21.8859 14.9775 19.1809 1.3383e+06 843517 1.17014e+06 -135729 -101569 7863.63 
268 1 29.1337 23.8021 14.9469 0.240399 94477.5 -302723 182092 51814.7 -141097 -178340 
330 1 30.9158 23.7184 16.8484 0.289493 129716 51172.2 1.29786e+06 -305278 -48482.9 82917.7 
333 1 32.7604 22.0224 16.8551 15.3335 1.1386e+06 308454 1.61857e+06 -260505 1966.68 130836 
334 1 34.4815 23.736 16.9031 0.120215 -14720.7 -621882 931591 16887.3 181382 44669.7 
269 1 32.6313 21.9726 13.1445 16.8933 610336 365945 486188 87850.1 -145327 -26314.2 
272 1 32.6633 23.8129 14.9297 0.273469 109748 -66862.3 466841 133443 110168 13066.9 
271 1 34.3988 21.8844 14.8533 15.5156 1.41414e+06 833203 1.42376e+06 -20482.3 -221068 84772.9 
3081 1 36.0634 21.9419 16.903 15.7555 1.03885e+06 80466.6 1.13674e+06 370234 538615 124624 
273 1 21.9122 25.5411 13.1348 13.2115 906641 1.5857e+06 1.57516e+06 -147334 -76585.4 -281332 
275 1 23.8988 25.5709 14.9276 0.44245 -229055 -473296 -2555.87 -227279 256501 -59644 
276 1 22.122 27.3227 15.0066 15.7928 -61154.5 646501 1.12722e+06 -305950 -27939.7 263436 
337 1 22.2452 25.6402 16.9042 15.0098 -221048 531054 839711 171913 -113472 182607 
278 1 27.5359 27.392 13.1 0.404099 133656 33426.4 569917 -272233 7201.95 113201 
280 1 25.6382 27.3441 14.8781 0.67888 -188491 -476934 306060 -317348 -129340 285587 
279 1 27.4581 25.5299 14.9589 0.176903 -445533 -156151 323262 -40489.2 -445003 89543.9 
345 1 29.1089 25.4642 16.835 0.532395 155276 417838 806251 -348127 -95873.2 -80231.1 
282 1 30.9763 27.4051 13.1322 0.665356 -458674 -277989 311830 168758 -6321.8 -101322 
283 1 30.9579 25.5337 14.9787 0.155478 -254938 -267568 257527 395086 118122 -163304 
284 1 29.2517 27.3164 15.018 0.233968 134262 78056.1 373154 -146931 -111921 -124283 
350 1 34.4759 27.1493 16.8496 0.347488 -631433 -183237 476721 -240491 42332.5 -65887.2 
349 1 32.7057 25.5363 16.9203 0.165937 -234891 -407951 390040 -53115 -48509.6 -271458 
288 1 32.78 27.2822 14.9229 0.2348 -247649 -7333.48 542911 -230601 -175944 66673.9 
287 1 34.505 25.4735 14.9671 0.126654 230888 -232050 478269 -161865 112579 -314114 
292 1 22.1533 30.8537 14.9932 16.7645 164810 1.34764e+06 1.32118e+06 -109658 196498 -7306.58 
354 1 23.8712 30.8244 16.8983 0.118048 -81310.4 393311 433437 327004 -60903.5 -173384 
289 1 21.9138 28.9369 13.0821 18.1865 1.23968e+06 1.82088e+06 1.72456e+06 129422 26787.9 109967 
290 1 23.7772 30.8054 13.1221 0.186664 42638.9 954325 480312 263266 -106852 -205131 
291 1 23.8183 28.9725 15.153 0.845205 -186504 -457157 623057 -177371 170424 344875 
295 1 27.3177 29.0612 14.9862 0.408448 -301020 -352070 577752 -442040 -68038.2 -167021 
296 1 25.5941 30.7957 14.9626 0.191114 337170 309047 626209 285038 288923 114733 
299 1 30.9867 29.0604 14.9831 0.1047 -7952.04 89645.2 392580 -251261 -322991 -476124 
300 1 29.0774 30.7544 14.9438 0.355122 773585 107717 854770 -229932 75029.1 -226003 
297 1 29.2599 29.117 13.0858 0.230054 -264126 -417727 375788 -349175 -354025 -183936 
361 1 29.0927 28.9996 16.868 0.412925 383778 127740 518088 -94452.9 -41378.3 89345.1 
303 1 34.5156 28.9645 14.8922 0.303068 -54012.8 198328 611615 -196761 -238566 -166663 
302 1 34.4928 30.9292 13.0805 0.327216 26321.6 555627 491580 -520029 149883 10268 
304 1 32.6781 30.9065 14.9445 0.342882 169737 141431 542548 -325532 10767.4 231107 
365 1 32.6997 29.0197 16.8417 0.167311 202655 347543 1.19346e+06 -102002 -145384 -88886 
366 1 34.4462 30.7687 16.867 0.24439 311677 124749 732011 -291132 -27337.8 406235 
308 1 22.2758 34.4616 14.9399 15.5698 246790 938365 1.21358e+06 235488 306757 -469351 
369 1 22.1609 32.6061 16.9011 18.0549 257551 1.30688e+06 1.39867e+06 137995 -84155.3 -181632 
305 1 22.1029 32.7287 13.1146 16.9332 139316 863782 1.11226e+06 -306294 -198128 -94765.6 
307 1 23.8414 32.6305 14.918 0.222949 -719638 -376662 716342 -89529.4 46215.7 -161236 
373 1 25.7089 32.6468 16.8414 0.301853 -465940 -365427 267153 158367 184603 -87706.3 
311 1 27.3596 32.6507 14.9809 0.131818 62683 491580 36100 147848 72043.7 -199425 
1575 1 27.2622 36.0997 14.9616 0.695344 395056 -168152 1.11e+06 -277614 13256 136434 
309 1 25.626 32.6106 13.121 0.323663 -226067 -300695 414780 -95429.7 233844 -82856.3 
312 1 25.5365 34.4037 14.9188 0.450005 -320938 -463233 694776 -311680 213480 -117578 
374 1 27.429 34.3312 16.8365 0.263153 -176798 -581157 226992 -475580 203684 -90095.5 
378 1 30.8791 34.4235 16.8974 0.212039 -675659 -120853 -56630.9 -130434 132009 -164943 
377 1 29.1518 32.5571 16.8157 0.323053 90409.1 47112.6 807719 -202690 218422 -33935.7 
315 1 30.8705 32.5833 14.9164 0.26057 -156122 424217 738629 73249.1 196822 40888.7 
316 1 29.2018 34.4782 15.0468 0.826543 63528 -79477.9 571372 -237903 -7946.69 192210 