ITEM: TIMESTEP
18600000
ITEM: NUMBER OF ATOMS
5780
ITEM: BOX BOUNDS pp pp pp
3.7982896486501083e+00 6.8501710351365404e+01
3.7982896486501083e+00 6.8501710351365404e+01
-6.6008150716285217e+00 7.8900815071644061e+01
ITEM: ATOMS id type x y z c_csym c_2[1] c_2[2] c_2[3] c_2[4] c_2[5] c_2[6] 
68 1 21.6088 24.1922 -3.23571 19.4977 -810331 -186067 954516 524540 222374 101045 
65 1 21.5365 22.3589 -5.0366 44.828 634587 635857 945277 -48885.4 252720 134654 
66 1 23.2283 24.0952 -5.05166 5.73677 -816310 -485048 -583180 -66474.3 433827 -50032.6 
69 1 24.9114 22.3016 -5.03452 12.5541 932997 232558 1.36019e+06 202740 -530519 183961 
73 1 27.3395 22.5814 -4.5779 11.7921 731198 968534 1.30894e+06 -262514 -264544 54924.4 
70 1 25.6862 24.666 -4.50635 5.42996 228394 195749 95050.8 -523212 -53850 -161760 
12 1 27.4301 24.5637 -6.46192 5.46784 733184 793432 187527 -338352 -332175 194581 
11 1 29.1549 22.529 -6.35061 10.7723 1.43589e+06 1.00278e+06 1.44312e+06 -123398 -60392.3 -47878.1 
74 1 29.0212 24.4889 -4.51745 0.39284 666489 394265 779302 -3130.55 -170376 440450 
77 1 30.8792 22.692 -4.55727 16.4478 913086 669960 1.01557e+06 -194111 -251356 95615.4 
16 1 30.8415 24.4521 -6.5084 0.642553 316681 510982 637541 -183531 -485574 198721 
15 1 32.6732 22.5611 -6.3516 16.841 1.23574e+06 222377 823388 -177159 99106.6 -101818 
78 1 32.7031 24.3816 -4.66917 0.709513 -272926 -1.10784e+06 120816 -397517 -96684.5 209707 
2793 1 34.3446 22.6051 -4.36888 15.9412 757584 -203383 909090 25171 -235196 -430360 
2724 1 34.4507 24.3211 -6.47316 0.369204 -736947 -557261 -88228.7 191887 234592 329886 
2723 1 36.0942 22.4048 -6.34886 18.7683 1.43372e+06 599807 1.50944e+06 -46387 -173892 49376.7 
81 1 21.3764 25.8683 -5.17593 15.3509 477351 1.0005e+06 1.20427e+06 110035 327191 -42723.4 
82 1 21.8064 28.2265 -4.49439 12.0614 1.05765e+06 818748 1.42291e+06 -88433.2 110000 341184 
85 1 23.8204 26.5095 -4.56451 5.42762 492960 -78978.6 -125448 -421418 18399 315936 
24 1 23.7447 28.0919 -6.4047 6.27699 317914 -750467 417622 -92891.8 -219442 308775 
86 1 25.5597 28.2283 -4.38835 0.780063 -866135 -947457 -482186 156550 387392 224872 
89 1 27.3878 26.4122 -4.50801 0.19962 -8677.99 -17126.8 339034 -283519 369092 281345 
28 1 27.3391 28.132 -6.31941 0.31469 -1861.07 -278126 354364 -67767.1 -132754 -123584 
23 1 25.5578 26.3604 -6.37648 5.84274 -57557 215299 408436 -41357.4 271352 144088 
90 1 29.2389 28.1848 -4.53081 0.238804 66727.7 -41579.7 398205 -156236 202946 -22071.5 
93 1 30.9192 26.2534 -4.57176 0.085879 727196 674522 835564 -117787 -81971 131322 
27 1 29.1404 26.308 -6.45186 0.165088 51070.3 294298 749654 -193445 -374054 124355 
32 1 31.02 28.0354 -6.45897 0.166685 391692 497650 436025 -243768 5698.68 188090 
31 1 32.7594 26.0274 -6.45081 0.441926 -238844 -445493 14726 88355 178333 372257 
94 1 32.7283 27.9917 -4.57203 0.101697 369531 495262 509382 -131743 -72220.2 114815 
2811 1 34.3954 26.0575 -4.47002 0.456742 -401247 72228.7 225047 -268976 -31378.5 -170472 
2742 1 34.4925 27.8879 -6.58905 0.527522 -75044.8 -139797 396521 -310381 -171262 -207860 
36 1 21.6019 32.4512 -5.80553 24.0858 -184659 1.0242e+06 677303 -161852 -330419 -11515.2 
97 1 21.5734 30.7656 -3.92218 20.4656 -111734 664996 1.07471e+06 -378449 6666.46 113783 
101 1 23.8479 29.8763 -4.51982 5.3105 -569233 76872 -524660 567894 277763 67430.6 
98 1 23.247 32.4434 -4.04218 5.25379 -783149 -342394 -291372 -300365 -57647.3 132547 
40 1 23.8835 31.7007 -6.50729 6.36916 -25601.5 199917 461857 103573 -116503 -629174 
35 1 22.0466 29.9248 -6.31368 10.0984 261356 930626 988233 129711 183879 284372 
102 1 25.6112 31.6805 -4.70704 5.93018 196289 477102 -23301.5 87303.2 47950 -144496 
105 1 27.4476 29.9383 -4.58237 0.111656 -135527 -575668 -838536 28593.3 164141 3585.61 
39 1 25.4963 29.7786 -6.38077 0.841152 -291821 -340680 27302.1 75829.3 -27581.9 -261292 
44 1 27.3637 31.5731 -6.48462 0.331801 404781 27871.4 -491874 205129 -10134 133527 
106 1 29.2325 31.6672 -4.69811 0.145761 -906157 -699973 63688.2 25937.2 430390 76506.9 
109 1 30.9994 29.8709 -4.62679 0.142083 -25025.3 -157388 194576 -243141 143116 20648.4 
43 1 29.1791 29.7776 -6.50564 0.241558 -392690 -453520 -106473 -392147 -140725 94358.8 
48 1 30.953 31.4785 -6.50694 0.366639 -264170 -22611 -366286 58269.8 -6607.36 217043 
47 1 32.7988 29.783 -6.47105 0.158179 -224895 -207638 267895 -179289 -92219.2 -95696.2 
110 1 32.8594 31.6049 -4.71015 0.163951 -156893 -311523 -101215 -190394 278538 -186883 
2829 1 34.5495 29.7482 -4.65578 0.132393 -257352 233092 191506 177731 351626 29687.2 
2760 1 34.6121 31.4906 -6.49299 0.10195 -411769 -453622 -247276 -37467.9 327852 107445 
56 1 25.181 35.9228 -5.91786 0.404753 456655 149261 -534177 -75630.7 -411078 182536 
1281 1 22.4779 34.6947 -3.54585 24.4112 984238 652702 1.30903e+06 203995 279050 1815.79 
51 1 23.3635 34.1826 -5.89376 5.2602 -586351 252903 172787 -171767 -109170 439159 
117 1 25.1223 34.2032 -4.05108 0.52833 664217 -552373 234750 -151480 42690 189626 
121 1 27.612 33.4424 -4.65495 5.60098 158109 -154038 28945.4 295407 36115 472272 
118 1 26.8761 35.9126 -4.15616 0.470087 3245.7 327501 180499 -346733 -30794.8 -199400 
60 1 27.5616 35.0703 -6.55265 6.4378 -467462 407519 177084 198753 -268127 236756 
55 1 25.6841 33.5184 -6.53956 5.95966 -44807.2 -315774 577134 -256872 332161 93894.1 
59 1 29.2497 33.3998 -6.51234 0.210692 -671953 -176255 -219307 604958 224400 222900 
122 1 29.2808 35.3068 -4.7072 6.17095 48625.9 -561175 271756 -116306 121734 -256550 
125 1 30.978 33.3624 -4.71436 0.36217 202150 -263606 -98310.3 -375145 -147167 217068 
64 1 31.1327 35.092 -6.48495 0.396062 77984.5 168783 -49791.3 13626.7 -96425 230126 
126 1 32.8546 35.1334 -4.76011 0.222703 -3239.22 202538 -89629.3 123696 -418225 -203760 
2847 1 34.6158 33.337 -4.72147 0.0675722 -589297 -680068 -329467 -120379 173710 53217.2 
2778 1 34.6993 35.0323 -6.53111 0.190975 -389286 -393569 -109533 -84349 116652 187364 
67 1 23.1065 22.4401 -2.99424 19.3604 -58242.7 -555865 884429 518286 -439139 -13900.3 
130 1 22.049 24.7526 -0.701695 10.8463 80760 -126123 1.01206e+06 -496259 1053.97 302642 
133 1 23.8431 23.0567 -0.779079 13.5624 57290 200215 435217 -391511 282438 -191171 
72 1 23.9145 24.7506 -2.75058 5.1037 -570189 -362579 132948 -602972 -22158.1 107956 
71 1 25.5416 22.8324 -2.54124 10.9883 422303 435446 1.13194e+06 -121673 111793 -10496.3 
134 1 25.6027 24.6844 -0.653324 0.470951 -119965 -495986 485439 -454032 27073.6 30719 
137 1 27.2997 22.8023 -0.712943 19.3459 538424 196979 582644 -228014 -56567.7 8805.67 
76 1 27.3172 24.5819 -2.61634 0.19224 -396563 -336287 -32472.1 470334 -513267 30954 
75 1 28.9711 22.7724 -2.73846 15.2625 1.25245e+06 142256 950261 214438 -203719 246892 
138 1 28.9785 24.5737 -0.842102 0.63224 -245872 -613173 -53608.7 -2614.54 8396.43 285425 
141 1 30.8064 22.7767 -0.775369 17.1991 1.007e+06 502344 1.11657e+06 -189658 211430 130483 
80 1 30.8533 24.5457 -2.61881 0.238346 577072 -54892.1 941187 155566 -29028.5 141992 
79 1 32.441 22.6423 -2.6076 15.8426 712743 368352 1.01725e+06 46919.1 194248 -96499.5 
2795 1 36.0835 22.653 -2.52035 14.9576 -20738.8 -206838 54387.9 124815 5241.46 -76260.9 
142 1 32.6589 24.4162 -0.698225 0.21895 -329063 -827124 -65116.9 -204828 27028.9 62168.7 
2865 1 34.4016 22.6725 -0.772984 16.5482 713618 21718.8 734277 67844.6 492215 178597 
2796 1 34.3021 24.2947 -2.63983 0.477149 -314520 -1.42487e+06 -338864 455473 221302 -8807.19 
145 1 21.3188 27.2041 -0.297993 28.4499 661340 844479 578272 -70984.9 350810 -157668 
83 1 22.0986 26.5541 -2.5071 9.43136 -105318 98672.5 443053 -178929 -76626.9 141537 
149 1 23.7405 26.3863 -0.701189 5.15557 -286620 -61085.5 918605 -499493 -673863 -10392.6 
88 1 23.8886 28.2054 -2.6666 5.69785 -475730 -368355 -520617 -110651 561573 -43172 
146 1 23.2432 28.8171 -0.289214 5.47827 -529640 -150489 410193 293513 -187752 147827 
87 1 25.7061 26.4292 -2.7108 0.508886 -338398 -637753 -360708 105129 -198785 -182587 
150 1 25.5869 28.1419 -0.867099 5.73977 -238706 154487 303871 62084.3 -96437.2 -38856.5 
153 1 27.3732 26.4116 -0.874384 0.405941 -495710 -166005 -40706.3 413144 -32768.4 -76105.5 
92 1 27.5033 28.2716 -2.67857 0.386219 -508524 -759316 -67897.9 -111200 82651.2 -167036 
91 1 29.1893 26.4143 -2.57876 0.37145 -64137.8 37996.9 208367 162444 68298.5 32314.2 
154 1 29.3677 28.1813 -0.828992 0.704957 -274043 -1.18182e+06 -661554 -11461.1 -62483.7 -138059 
157 1 30.8988 26.2744 -0.724759 0.343005 -672920 -388371 -334147 97116.2 25014 5930.86 
96 1 31.1049 28.0148 -2.61665 0.687839 -284861 369570 -9614.88 -55655.6 60849.8 -26966.8 
158 1 32.6943 27.979 -0.798965 0.363592 -140215 561435 -138960 -198225 79719.9 49611.2 
95 1 32.7364 26.1619 -2.68738 0.178611 -808266 -621763 331413 -66585.5 212625 -117810 
2883 1 34.466 26.0979 -0.780946 0.183296 187022 388249 310559 60798.8 297982 365627 
2814 1 34.4604 27.8406 -2.62697 0.4473 133468 172005 569143 -358845 92258.1 -111636 
84 1 21.5351 28.9895 -2.01478 23.5231 92117.6 792140 846564 -71789.4 -257852 177504 
99 1 23.4225 30.6027 -2.21316 5.08432 -869871 -276383 -543828 6421.53 268661 -282881 
165 1 25.0283 30.6389 -0.276914 0.462112 -60460 38608.2 -192195 11199.8 -250623 -83362.4 
113 1 22.4771 31.115 -0.0118554 18.234 730423 560888 856127 428533 547716 156928 
104 1 25.1553 32.3708 -2.29874 0.637054 240828 -435343 790675 -227847 -5005.29 -47534.4 
103 1 25.7501 30.0153 -2.74195 5.95037 -950779 -1.04367e+06 -91894.8 112396 124796 -429252 
169 1 27.4085 29.8787 -0.84477 5.10701 -48769.2 -20132.1 -578284 -109743 -241590 -409537 
108 1 27.4991 31.7084 -2.83228 6.13357 -472598 -379979 354377 -363845 341646 -169928 
166 1 26.892 32.36 -0.314246 0.287548 -147341 -99116.9 -8605.44 -262944 94405.2 316811 
170 1 29.1884 31.6934 -0.830624 5.56545 -791937 -1.2598e+06 483576 -19649 72231.7 -47864.8 
107 1 29.2613 29.8958 -2.70826 0.143061 -201460 -54098.8 -68409.3 -520625 -292610 -162936 
173 1 31.0003 30.0025 -0.915899 0.696516 -40285.9 -10998.5 446178 -408498 -109428 100496 
112 1 31.1104 31.6639 -2.82826 0.293894 199494 -352951 170472 -39470.6 54337 -4475.43 
111 1 32.8455 29.8995 -2.77356 0.352067 17085.7 90500.6 659202 -168136 -3226.13 -63518.6 
174 1 32.8689 31.6958 -0.822745 0.415183 21209.3 -288267 793843 216264 -93741.1 -107385 
2901 1 34.5385 29.8143 -0.872726 0.246358 288974 443017 180972 119320 194018 233178 
2832 1 34.6199 31.5638 -2.78755 0.0858585 -325968 -263973 365952 -147131 -144098 34187.4 
52 1 22.5271 32.9358 -1.77289 22.1264 1.04954e+06 983971 631436 258417 369642 171197 
1283 1 24.3793 34.73 -1.70529 5.43121 464592 367890 -260712 142501 605995 -211548 
114 1 24.2555 32.9489 0.202409 5.43195 866717 178229 499325 341939 36718.1 461355 
1353 1 23.744 35.4581 0.463621 14.0288 337437 999586 492573 71684.2 308164 24537.4 
124 1 28.7929 35.8537 -2.25934 0.353069 71001.9 -306485 242014 -43803.3 30391.1 -19615.4 
1357 1 26.1875 34.8139 0.170719 0.274287 520087 23908.6 -873696 180052 291935 -77771.5 
119 1 26.9353 34.1177 -2.11898 0.621617 -26062.2 -422291 297907 -76842.5 -182803 -160623 
185 1 28.7309 34.019 -0.435004 0.586637 -403186 -616689 -69905.7 -116982 -60500.1 6938.93 
128 1 31.1204 35.033 -2.78903 5.31302 -169031 52699.4 712615 78011.8 21018.8 -308087 
186 1 30.4843 35.8227 -0.42915 0.206612 57188.3 239377 89967.4 -333885 -332640 -174184 
123 1 29.2879 33.4366 -2.80312 5.76422 -673762 -261164 -177532 -314168 -34861.1 -231344 
189 1 31.0119 33.2365 -0.86786 5.18003 -667124 237801 502866 248546 5685.39 -102568 
127 1 32.9162 33.3241 -2.85457 0.240456 -217248 -338236 472226 94908.5 84052.5 -204479 
190 1 32.9444 35.1271 -1.00392 5.62218 359186 88839.4 388170 653947 -19016.6 -198167 
2919 1 34.6644 33.3991 -0.931297 0.105355 42630.4 175910 981992 341305 57018 -226112 
2850 1 34.6743 35.134 -2.94219 0.301308 21461.2 -328120 282520 234199 209615 86844.2 
193 1 21.566 23.8032 3.36409 45.8575 9451.2 -323118 737401 -37881.2 83688.2 172994 
131 1 22.1472 23.0346 1.10319 37.4206 645606 430228 773539 -34172.4 121897 144413 
197 1 23.8511 23.071 3.11295 15.1075 329622 -196392 343004 27043.4 189380 163454 
136 1 23.9187 24.7305 1.29778 4.83185 -219043 -102939 65887.3 -60469.8 91793.7 257304 
135 1 25.7048 22.9753 1.161 15.7158 1.11512e+06 -49200.3 1.01637e+06 -105177 296992 87333.3 
198 1 25.7456 24.7272 3.01165 5.46063 -149675 -235774 311766 -381978 -335815 -186148 
201 1 27.4185 22.8446 3.17888 15.0534 728535 196118 789090 -78823.4 60292 -406737 
140 1 27.4207 24.7252 1.11497 0.279252 -689873 -831661 243389 182650 260283 -272440 
139 1 28.9633 22.9607 1.13511 13.8861 563698 -382632 806778 381332 -200352 -18992.8 
202 1 29.1816 24.6102 3.0769 0.272373 -293297 -406529 258254 340736 282488 -371433 
205 1 30.8124 22.8242 3.00875 17.0865 905693 -80397.9 859527 261758 -8551.6 6670.99 
144 1 30.8531 24.57 1.17417 0.371792 -258129 -718820 15472 -47919.9 -12989 39607.2 
143 1 32.559 22.7656 1.0946 17.9006 925692 -39659.4 785630 -580.89 13362.6 254690 
206 1 32.6258 24.5932 2.88735 0.263368 -11470.2 -8672.19 -51036.5 120647 -114931 134357 
2937 1 34.3779 22.717 2.97768 17.954 1.31863e+06 248582 1.37955e+06 -312504 -42664.9 119763 
2868 1 34.442 24.4169 1.12391 0.135165 50378.9 -283148 107775 -157177 -104922 308141 
129 1 21.5801 25.4642 1.64649 25.5938 -17884.4 175587 351318 -255228 -66772.5 -42380.2 
194 1 23.2324 25.4714 3.5697 5.15785 -505196 -507740 472568 -693756 -101257 -63024.2 
147 1 23.1398 27.2998 1.77014 4.89067 284884 708179 980792 -544716 130656 415726 
213 1 25.0049 27.1118 3.50049 0.319728 -783838 -566636 206746 -514984 315386 -177594 
152 1 25.0105 28.9377 1.58115 0.220925 85938.6 -478162 -448533 -355144 -80268.1 -129693 
151 1 25.6237 26.5507 1.07921 6.05776 544338 -156436 391728 -280201 31468.2 -15741.6 
217 1 27.479 26.4394 2.95276 5.52333 21289.9 -430872 506033 -260255 -30224.7 -212594 
156 1 27.4703 28.2159 1.02493 5.55011 -70565.8 -555258 513001 -319914 157387 164342 
214 1 26.7385 28.7857 3.39636 0.547604 -625831 -319192 502300 44100 146879 -300577 
155 1 29.1956 26.4497 0.977825 0.405809 -656598 -63541.9 -54618.4 62635.1 325017 -27986.7 
218 1 29.3217 28.1364 2.92725 5.41608 -411130 -522671 564217 -159671 -34114.2 -70981.9 
221 1 30.9486 26.4303 2.81164 0.557337 -731797 -823702 434635 320581 7481.52 -227593 
160 1 31.042 28.1832 0.99441 0.392864 -657195 -32127.9 -756607 -251372 -98090.8 -61641.6 
159 1 32.7443 26.2269 1.01222 0.26253 -16336.6 -341480 -585744 192408 309112 15104.6 
222 1 32.7675 28.0159 2.7948 0.641742 -220489 -127980 463349 -339977 -94375.4 -51366.6 
2955 1 34.5961 26.2874 2.94443 0.429078 -183451 -1460.53 -33979.7 -261396 162724 -11409.3 
2886 1 34.607 28.1642 1.0397 0.761471 274131 455993 400906 40974.8 113333 98980 
115 1 24.3692 31.3439 1.99934 5.53289 -311952 -676937 -198958 -372635 574194 488340 
100 1 22.5343 29.8379 2.13209 21.4193 654009 1.29433e+06 1.87479e+06 -440221 146060 164438 
162 1 24.5313 29.5783 3.84914 5.13215 -1.21654e+06 -219767 -534180 1119.98 861219 -236474 
167 1 26.7977 30.6199 1.47822 0.184543 -190809 -303211 -280478 -105195 57696.8 -87137.6 
233 1 28.5683 30.5959 3.49625 0.344667 -520132 -32951.9 302932 95226.5 451385 -370403 
181 1 26.2955 31.2647 3.83535 0.835551 -653402 -394587 271587 -478201 186553 -133108 
172 1 28.5777 32.4543 1.5692 0.664554 -474264 -449344 -140368 -28285.5 289019 -300688 
171 1 29.1701 29.9253 0.952942 5.90082 -519418 -328158 542855 -737430 -67369.9 -86749.9 
237 1 31.0014 29.8346 2.95958 5.54156 274836 -802247 586608 -288596 42178.9 81313.7 
176 1 30.8925 31.6206 1.14881 5.70215 114295 -324011 398576 -16531.8 -176603 -77497.5 
234 1 30.4588 32.1446 3.5942 1.09188 76634.9 -120692 -10659.3 -75124 206068 -432731 
175 1 32.8158 29.9058 1.04864 0.148296 -91560.3 -7288.04 504644 -250562 -11216.8 48947.1 
238 1 32.8264 31.6999 2.86701 5.72765 -182980 -533653 637700 -209081 291213 -184612 
2973 1 34.5348 29.8265 2.9254 0.260217 346978 377728 51156.1 90100 6762.99 96964.3 
2904 1 34.6735 31.5519 1.11074 0.542579 -331628 -102356 356746 74180.7 -119908 -13583.5 
116 1 23.5322 33.732 2.47315 13.7508 821657 961079 726840 116089 -82416.6 -348702 
1355 1 25.5257 35.4199 2.38129 5.29413 412462 -25113 -671008 195167 234024 -304530 
1359 1 28.0189 34.7874 1.94414 0.14079 -222364 -744565 265933 -50408.1 -133184 -75648.8 
120 1 26.1241 33.0657 1.95766 0.203341 221791 -530578 -286168 -137984 272981 -55023.1 
182 1 27.9792 33.0026 3.85236 0.326184 64978.2 -738314 98074.4 -819024 539862 -229983 
192 1 32.2548 35.7553 1.35235 0.302371 -666418 -566293 399045 -200112 -3578.76 -287651 
1433 1 29.7297 34.6056 3.82512 0.502243 332130 378404 64626.2 -239419 418741 -355060 
187 1 30.4598 33.9938 1.58007 0.371699 -100557 -325293 485017 -247416 333546 -520061 
253 1 32.2732 34.0323 3.45346 0.239175 -308983 -483020 300631 188575 210485 -482023 
191 1 32.8813 33.3897 1.00882 5.91531 401020 -175758 264904 122347 29314.8 -129887 
2991 1 34.5759 33.3569 2.93485 5.53588 -889455 -846297 -65410 -11146 41427.2 -363805 
2922 1 34.6404 35.1765 0.948394 6.1335 -246587 -591773 194327 80902.5 79933.2 -380896 
254 1 34.0559 35.738 3.30598 0.0880059 -601307 -390693 6129.8 190172 651670 -143090 
195 1 23.23 23.5844 5.44238 23.4935 218362 641498 81195.5 -134845 289913 -155354 
261 1 24.8887 23.4491 7.266 18.7523 -292840 546032 792734 95186.4 -86747.2 94550.9 
200 1 24.9548 25.3333 5.43001 0.259335 281921 238759 405225 -270350 -114456 -127155 
199 1 25.5926 22.8364 4.86597 15.3788 517442 787256 649271 -70986.2 -36338.2 38415.4 
204 1 27.4471 24.6311 4.87404 5.80494 197080 -365883 572.808 -26443.4 -130099 -196668 
265 1 27.2391 22.9016 6.76696 13.7395 548225 295617 1.28437e+06 -146455 17251.2 108215 
262 1 26.6424 25.2952 7.3479 0.205763 75651.2 357195 781886 -112240 66400.9 -151287 
203 1 29.1445 22.7681 4.95488 16.9794 1.14394e+06 525043 1.12288e+06 96485.6 -222638 -16891.5 
266 1 29.084 24.6117 6.78127 6.42559 94792.9 -107336 551568 -545464 -181765 3880.5 
208 1 30.9776 24.5692 4.85788 0.282748 -110935 -606745 697542 443705 -196607 -300131 
269 1 30.9534 22.8036 6.80886 15.1244 902779 334617 698415 -127110 274069 -256451 
207 1 32.5439 22.8341 4.87265 15.8443 515499 -110188 966063 642550 -66199 -110090 
270 1 32.759 24.5791 6.75408 0.512618 -171277 -28428.1 308731 67626.7 -384823 -275752 
3009 1 34.3163 22.7011 6.69866 15.6282 969832 286092 1.10098e+06 346188 -113990 -311340 
2940 1 34.4412 24.5616 4.74665 0.397456 464680 -216052 821353 62.1382 172604 -10911.7 
161 1 22.7955 27.8953 4.23381 13.7493 -432510 976653 1.18458e+06 18904.2 44432.8 -5812.41 
148 1 22.6467 26.186 6.08393 17.4925 -223930 1.05139e+06 501465 -147317 -515801 404231 
163 1 24.5795 27.762 5.86984 5.36679 -1.46629e+06 -231039 -521638 65719.4 290697 -222185 
225 1 23.0428 28.2605 7.6266 20.708 775022 1.12229e+06 598492 160973 743121 200215 
215 1 26.8871 27.0293 5.42456 0.600657 -850553 48539.8 822520 -54778.4 -75148.5 21376 
281 1 28.4233 27.037 7.32942 0.250542 112709 36410.7 537634 -180920 -432109 -106944 
220 1 28.5671 28.8007 5.35486 0.221122 -267043 -762113 1.10238e+06 -301560 226557 -129467 
219 1 29.2093 26.446 4.86584 5.48623 -237417 -152486 403582 -9059.36 -114111 -186735 
224 1 31.0223 28.1733 4.83299 5.63144 -28775.7 -375403 784172 81678.2 -220681 59858.4 
285 1 30.8401 26.2929 6.78101 5.49069 240819 368905 571004 -314303 -138952 -72732.6 
282 1 30.2886 28.7734 7.3947 0.21194 379707 151417 882400 -149751 90011.5 277003 
286 1 32.6746 28.0591 6.80553 5.89471 662981 585508 726677 213170 -79166.9 -175413 
223 1 32.6886 26.3464 4.82782 0.163191 281431 71465.5 964823 40304.6 -48077.1 39182.1 
3027 1 34.5049 26.333 6.78939 0.355257 -307103 -162168 535121 -541600 -90950.1 -97121.5 
2958 1 34.5934 27.9735 4.83392 0.276032 -132644 -456581 507406 -143990 -80965.5 -34310.2 
177 1 23.5814 31.9631 4.30665 11.9741 435536 765328 514714 -265309 -44440.6 153415 
164 1 23.4693 30.0437 5.97368 14.3473 483623 841665 268568 154448 146157 280336 
179 1 25.2712 31.8763 6.10741 4.78753 -1.14326e+06 -592055 -347950 118985 -225983 61582.1 
168 1 26.2282 29.5566 5.78985 1.26846 -239679 74386.3 157937 -365662 351230 -228631 
183 1 28.0447 31.2013 5.74669 1.12756 -431296 -346004 -581446 -304015 647444 -606577 
235 1 30.4004 30.447 5.51984 0.61635 -226372 -1.51688e+06 614659 745.151 -91738.3 35404.7 
301 1 32.1376 30.4871 7.30628 0.187891 15694.8 -166968 525495 -485676 -320594 63450 
240 1 32.1822 32.2396 5.42489 0.231482 -1.10951e+06 -357859 389883 271068 -479449 -74770.7 
239 1 32.8967 29.8331 4.7938 5.94722 387951 801657 933325 -128024 87076.3 -24857.9 
2976 1 34.6685 31.7109 4.87456 5.43711 267928 -351455 407075 -105658 66930.7 223464 
3045 1 34.584 29.8702 6.67516 5.35573 341870 690744 379322 -84655.1 111463 -25808.8 
302 1 33.8035 32.2727 7.20346 0.84878 469872 169124 350625 -289179 -232850 -227054 
1425 1 23.7066 35.4227 4.23684 16.3524 -42234.6 511130 790376 194739 -191848 -354916 
180 1 23.6442 33.6691 6.11877 16.9328 -184827 152833 622578 195546 -192454 131846 
1427 1 25.3843 35.4323 6.10653 0.233169 -831731 -370071 -270865 374067 165859 79521.4 
178 1 25.3877 33.6798 4.22248 4.81511 -363677 -47499 -308973 221418 -67948.4 31256.6 
1429 1 27.2601 35.4462 4.27419 5.41005 -40989.6 32976.9 331057 296255 -202522 -140844 
184 1 27.0188 33.5568 6.11498 4.67926 82294 -85308.4 -104421 -149793 20585 66527.9 
1431 1 29.0233 35.2431 6.11033 5.2386 489982 394774 -270059 -32511.9 -97786.2 343704 
1435 1 31.6379 34.5513 5.80057 0.606295 581324 -44691.4 -248518 143797 1.04823e+06 -913414 
188 1 29.9147 32.7446 5.93099 2.05014 -1.11728e+06 -770831 -1.33062e+06 119309 1.45978e+06 -1.23446e+06 
255 1 34.0797 34.062 5.24655 0.520251 -253966 -718189 306882 521698 826.749 -298320 
2994 1 36.0306 35.7673 5.20291 1.08738 -652809 -708287 831703 160861 260116 -321115 
3063 1 35.6987 34.1266 7.21006 0.610737 566432 623606 1.01871e+06 -39213.9 174324 -97712.9 
132 1 22.6255 24.2226 7.65779 61.608 250692 150689 486653 103217 234552 -279654 
196 1 24.264 24.3642 9.7099 14.5087 2322.69 545651 2.27608e+06 -334001 216078 142472 
263 1 26.5231 23.4554 9.26221 16.4308 973386 699267 1.39936e+06 -9891.12 -325473 84767 
329 1 28.4549 23.4692 10.8208 14.3323 470290 -428447 372514 -184185 -76358.3 460983 
268 1 28.5277 25.198 9.19058 0.223075 373957 -279033 -237689 -331923 197540 430165 
267 1 29.1312 22.7652 8.51466 13.952 979541 368925 458138 -321199 114546 160603 
272 1 30.9565 24.5162 8.60352 5.75483 338197 -343412 -260689 -333810 -17641 -27973.8 
333 1 30.8081 22.7102 10.3451 14.5454 777728 140040 652583 -11051.7 361583 56949.9 
330 1 30.3873 25.0962 10.9907 0.221481 -138462 -599517 -549226 -148301 -67470.3 68734.1 
334 1 32.7595 24.4143 10.3757 5.4271 -426194 -206821 -540976 -79778.4 476270 191299 
271 1 32.6596 22.5093 8.66171 15.7688 417235 434033 742614 -295864 -329882 -180873 
3012 1 34.3203 24.3535 8.5992 0.900371 -225323 -456331 -942877 95411.9 -23678.1 -115798 
3081 1 34.4806 22.5168 10.2258 16.8562 522106 277068 704843 -45656.4 -175613 400307 
209 1 24.2911 25.9651 7.76587 4.38661 -1.0731e+06 112771 -109156 -496690 -331697 194366 
212 1 24.2976 27.6207 9.86071 8.18646 -92459.5 773145 857254 109057 638269 229397 
210 1 25.9577 27.7324 7.9946 5.45581 330409 -591648 674419 -715705 59856.8 241744 
211 1 26.0739 25.9358 9.73182 5.3439 -338731 -157029 962915 -360047 -166462 105292 
216 1 27.8539 27.6277 9.85735 5.8409 416406 258983 1.14451e+06 -237650 24289 224419 
283 1 30.2107 26.9242 9.18115 0.32482 289096 190839 635560 -324909 79384.9 63538.3 
349 1 32.129 26.8693 11.0778 0.119126 255413 54964.4 -100558 -86268.2 117866 21375.8 
288 1 32.118 28.6951 9.21602 0.0831155 753846 9976.11 518227 49366.5 20869.9 -168815 
287 1 32.7234 26.2787 8.69803 5.35552 321909 -278563 70882.9 98687.9 -30434.3 -5083.15 
3030 1 34.6246 28.0324 8.61521 5.26962 382598 154039 541092 75786 -26817.3 -249804 
3099 1 34.5738 26.1169 10.3898 6.45126 -370495 256056 -329529 -108717 -237491 251115 
350 1 33.9372 28.7406 11.086 0.412328 98716.9 79653.8 734531 41444.9 -115230 -62255.8 
241 1 23.5303 31.8588 7.83659 16.3088 -384370 277698 559973 420736 90974.9 253282 
228 1 23.329 29.9449 9.51183 19.3729 557511 1.04408e+06 835196 5803.03 598645 256970 
226 1 25.0749 30.027 7.86716 5.72229 -684413 -449579 -1.37498e+06 943590 244391 -53887 
243 1 25.2747 31.7668 9.61041 5.14309 -328426 -267670 -1.02171e+06 231704 318819 -427080 
229 1 27.7928 29.3971 7.84397 2.31877 682581 -128577 1.80514e+06 -196986 -162617 -43639.6 
245 1 26.9929 31.7061 7.85202 6.26589 -218172 -168086 -1.08254e+06 525581 575999 -188366 
227 1 26.0226 29.3889 10.0064 5.46067 680699 220018 229848 -130140 -381781 108601 
232 1 27.866 31.1482 10.1903 6.59456 593874 -183482 378397 -95971.6 -28285.5 263223 
230 1 29.6366 31.1218 8.01955 4.1648 430534 -1.02007e+06 998377 -486636 -260819 95239.3 
231 1 29.6643 29.3971 9.87999 5.6966 330717 345786 855130 -459806 154260 108812 
236 1 31.4601 31.0085 9.78033 5.29515 74479.5 -440588 678969 -70978.2 -28092.2 261101 
303 1 33.9274 30.476 9.10041 0.144498 561828 374369 695709 -120216 -147189 -30714.9 
3048 1 35.7474 32.2788 9.09059 0.12166 656934 429427 942693 -240737 151141 -119515 
3117 1 35.6969 30.5069 10.9931 0.282987 -368010 -42983.3 557772 -118387 326629 -174020 
1497 1 23.7458 35.6185 7.95444 14.4245 -468149 597505 238424 -85307 -173998 -53479.7 
244 1 23.631 33.7113 9.65236 17.4057 -166734 638197 673585 -175043 385508 4433.66 
242 1 25.3308 33.662 7.93247 0.161874 -1.27941e+06 -661435 -1.19419e+06 4236.94 140698 -162773 
1499 1 25.4425 35.405 9.65313 0.152093 -1.61097e+06 -578616 -1.11532e+06 -1948.14 -40023.9 -218048 
1501 1 27.1901 35.3554 7.93298 0.157 -349745 -500316 -385832 -15287.9 104496 1124.86 
248 1 27.1673 33.5232 9.59639 5.57047 -418008 -589903 -836830 -146300 110317 101179 
246 1 28.9393 33.4605 7.80949 7.32786 -566577 -865351 -2.85722e+06 935444 649404 -361993 
1503 1 29.0566 35.1126 9.61408 5.77436 -349068 -726358 -400577 -314523 -219900 -95615.1 
249 1 31.3767 32.8077 8.0148 5.87559 -394389 -283570 611439 -259021 -124826 84395.2 
1505 1 30.826 35.2444 7.84669 8.44254 -107413 -235044 -2.30243e+06 415159 244498 -376342 
247 1 29.7569 32.8238 9.96048 5.00912 54745.8 -351336 -273231 263642 -315667 350350 
252 1 31.6127 34.524 9.99015 5.43269 -51127.1 -407754 -60567 441744 -457308 699762 
250 1 33.3654 34.6094 8.00452 6.57768 166194 163248 1.17497e+06 -127707 -107593 178676 
251 1 33.2949 32.8374 9.74164 5.89003 95905.8 -128350 594785 415114 50379.4 258024 
256 1 35.1148 34.6501 9.74216 5.31217 231919 422083 470851 153494 -328551 6485.95 
257 1 23.8556 23.6449 12.3031 42.6013 -514638 686720 1.20955e+06 189211 -91786.5 103047 
259 1 25.475 23.4 14.0471 21.4039 313947 802691 5205.68 126337 -265878 252235 
258 1 26.0774 24.1742 11.8042 8.90277 -156728 291164 489549 -738268 137861 -192704 
264 1 28.0184 24.0784 13.4148 9.34154 -23613.2 -164207 -10298.1 -313892 -432132 -210651 
397 1 32.0846 23.3035 14.6021 16.5417 424623 315586 793135 20080.4 154158 116931 
331 1 30.3162 23.3885 12.7331 16.9801 732382 -317431 401467 -129638 190084 186056 
336 1 32.1614 25.0729 12.7886 0.0797312 -114825 -84175.8 -75589.1 -313222 -105297 289773 
335 1 32.9051 22.6433 12.1755 13.2923 1.326e+06 456195 1.41367e+06 -465726 267540 239196 
3153 1 34.6293 22.6779 14.1145 14.3195 845179 222335 729799 -227817 -360319 126256 
3084 1 34.6216 24.4285 12.186 5.75733 99022.1 -164885 271083 -250068 -202708 413097 
398 1 33.9805 25.0546 14.6521 0.174876 -250004 -509707 73246.9 66336 -144048 61023.9 
260 1 23.8141 25.3937 14.1569 18.5256 243134 402684 804235 -150951 132471 560376 
273 1 24.1613 26.0838 11.755 11.9864 593321 921634 779439 -453538 -94697.2 382418 
276 1 24.457 27.7675 13.7099 10.3519 -411047 -45604.2 343585 -460227 366979 75609.9 
274 1 26.0834 27.609 11.8948 0.707174 -512937 69510 -13115.4 -182227 112239 718082 
277 1 27.9331 25.8154 11.5468 5.30522 223757 -433072 -119342 -332776 -78680.3 77646 
275 1 26.1302 25.8833 13.5218 6.32761 -175258 -887716 -765369 -355570 258138 114385 
280 1 27.9774 27.4546 13.4945 0.493405 -884512 -141919 -324281 -151001 391626 297868 
278 1 29.7755 27.4801 11.7049 6.39959 -306208 -484937 -213744 -270270 -4281.92 473463 
279 1 29.7817 25.7554 13.3271 5.16801 -640617 -873915 -517409 -74479.8 282853 346664 
284 1 31.5792 27.5552 13.4351 5.12779 -545662 -259696 -592175 220758 -201302 311160 
351 1 33.95 26.7985 12.8837 0.318033 272475 139913 -114013 -250900 125080 -41123.5 
3102 1 35.8056 28.5446 12.7619 0.583541 101162 384661 -2332.37 25070.7 -218153 -373217 
3171 1 35.8195 26.7879 14.7575 0.476033 -518382 24957.6 784747 -127896 56329 12252.8 
305 1 23.6125 31.7937 11.3876 15.6835 157326 921010 1.1396e+06 -117630 469393 199231 
289 1 24.2911 29.4137 11.8755 9.18621 211892 753777 1.1055e+06 -46130.6 126053 278717 
292 1 24.3628 31.1091 13.8961 10.5065 105497 767288 921466 254139 -89198.5 87173.4 
291 1 26.1664 29.4101 13.8176 0.527671 -427552 -804358 -29829.8 -505815 119561 -248685 
296 1 28.0383 31.1064 13.6719 0.141704 14493 -742607 -153988 -89443.6 325352 -124179 
293 1 27.9017 29.3778 11.8745 0.187271 626665 -40706.1 77902.9 -164981 -147454 361281 
290 1 26.0557 31.1472 11.9367 5.9996 -23663.6 -451761 66104.3 -91632.5 27997 95462 
300 1 31.6746 31.1016 13.545 0.169944 60587.1 482681 28605.7 18469.6 -195544 331014 
295 1 29.7879 29.2218 13.5918 0.320571 45609.3 -86606.8 -33969.4 386170 274631 348282 
297 1 31.542 29.2907 11.6791 6.08553 -24522.7 -271445 149411 34028.4 284543 313385 
294 1 29.8315 31.0817 11.9334 0.719271 -385483 -21440.4 49933.2 -162078 -179696 156246 
298 1 33.3799 31.0411 11.6473 6.17297 -311291 -231489 799762 170133 319002 -27774.1 
304 1 35.2547 31.0232 13.4534 6.4195 -755.635 999569 473726 -161337 393045 -1182.28 
299 1 33.4412 29.2956 13.5529 6.6855 162831 -199921 -53498.3 -179011 151861 -33547.5 
1569 1 23.7824 35.4761 11.4689 17.006 541441 700212 438234 -154313 339004 54032.5 
308 1 23.9063 33.5451 13.257 13.1847 -240690 1.10118e+06 1.20863e+06 -236093 355109 184393 
306 1 25.4983 33.4651 11.4051 5.48495 -842112 -514293 -670494 -292469 299052 12630.2 
309 1 27.9352 32.8987 11.9049 5.81532 137367 -181641 -358369 -8477.61 -111614 -100927 